<?xml version="1.0" encoding="UTF-8"?>

<!-- generated on 2026-02-26 16:14:31 by Eclipse SUMO GUI Version 1.24.0
<sumoConfiguration xmlns:xsi="http://www.w3.org/2001/XMLSchema-instance" xsi:noNamespaceSchemaLocation="http://sumo.dlr.de/xsd/sumoConfiguration.xsd">

    <input>
        <net-file value="tahrirupdated.net.xml"/>
        <route-files value="od_route_tahrir.odtrips.rou.xml"/>
        <additional-files value="tahrir.add.xml"/>
    </input>

    <output>
        <netstate-dump value="outputs/netstate.xml"/>
        <emission-output value="outputs/emission.xml.gz"/>
        <fcd-output value="outputs/fcd.xml"/>
        <full-output value="outputs/full.xml.gz"/>
        <summary-output value="outputs/summary.xml"/>
        <tripinfo-output value="outputs/tripinfo.xml"/>
        <lanechange-output value="outputs/lanechange.xml"/>
    </output>

    <time>
        <begin value="0"/>
        <end value="3600"/>
    </time>

    <report>
        <verbose value="true"/>
        <no-step-log value="false"/>
    </report>

    <ssm_device>
        <device.ssm.probability value="1.0"/>
        <device.ssm.measures value="TTC DRAC PET"/>
        <device.ssm.thresholds value="3.0 3.0 2.0"/>
        <device.ssm.trajectories value="true"/>
        <device.ssm.range value="50.0"/>
        <device.ssm.extratime value="5.0"/>
        <device.ssm.file value="outputs/ssm.xml.gz"/>
    </ssm_device>

    <gui_only>
        <gui-settings-file value="gui_settings.xml"/>
    </gui_only>

</sumoConfiguration>
-->

<tripinfos xmlns:xsi="http://www.w3.org/2001/XMLSchema-instance" xsi:noNamespaceSchemaLocation="http://sumo.dlr.de/xsd/tripinfo_file.xsd">
    <tripinfo id="1734" depart="11.00" departLane="50211834#0_0" departPos="4.60" departSpeed="28.07" departDelay="0.84" arrival="43.00" arrivalLane="10873191#5_2" arrivalPos="21.02" arrivalSpeed="27.86" duration="32.00" routeLength="640.81" waitingTime="0.00" waitingCount="0" stopTime="0.00" timeLoss="6.59" rerouteNo="0" devices="tripinfo_1734 emissions_1734 ssm_1734 fcd_1734" vType="car" speedFactor="1.01" vaporized="">
        <emissions CO_abs="2994.06" CO2_abs="209623.86" HC_abs="18.75" PMx_abs="4.57" NOx_abs="86.48" fuel_abs="66859.61" electricity_abs="0.00"/>
    </tripinfo>
    <tripinfo id="746" depart="19.00" departLane="29181613#1_0" departPos="4.60" departSpeed="26.05" departDelay="0.03" arrival="44.00" arrivalLane="192591565#2_0" arrivalPos="258.68" arrivalSpeed="25.55" duration="25.00" routeLength="523.59" waitingTime="0.00" waitingCount="0" stopTime="0.00" timeLoss="3.15" rerouteNo="0" devices="tripinfo_746 emissions_746 ssm_746 fcd_746" vType="car" speedFactor="0.94" vaporized="">
        <emissions CO_abs="1935.02" CO2_abs="148145.76" HC_abs="12.36" PMx_abs="3.12" NOx_abs="59.48" fuel_abs="47251.21" electricity_abs="0.00"/>
    </tripinfo>
    <tripinfo id="244" depart="12.00" departLane="28718647#1_0" departPos="4.60" departSpeed="24.06" departDelay="0.88" arrival="51.00" arrivalLane="305873958#3-AddedOnRampEdge_2" arrivalPos="99.87" arrivalSpeed="23.51" duration="39.00" routeLength="775.85" waitingTime="0.00" waitingCount="0" stopTime="0.00" timeLoss="6.51" rerouteNo="0" devices="tripinfo_244 emissions_244 ssm_244 fcd_244" vType="car" speedFactor="1.08" vaporized="">
        <emissions CO_abs="2321.95" CO2_abs="194345.57" HC_abs="14.96" PMx_abs="3.76" NOx_abs="75.46" fuel_abs="61986.85" electricity_abs="0.00"/>
    </tripinfo>
    <tripinfo id="282" depart="3.00" departLane="28718647#1_0" departPos="4.60" departSpeed="22.89" departDelay="0.17" arrival="55.00" arrivalLane="192591565#2_0" arrivalPos="258.68" arrivalSpeed="28.28" duration="52.00" routeLength="1007.14" waitingTime="0.00" waitingCount="0" stopTime="0.00" timeLoss="8.94" rerouteNo="0" devices="tripinfo_282 emissions_282 ssm_282 fcd_282" vType="taxi" speedFactor="1.03" vaporized="">
        <emissions CO_abs="3944.12" CO2_abs="302560.20" HC_abs="25.29" PMx_abs="6.25" NOx_abs="122.84" fuel_abs="96501.80" electricity_abs="0.00"/>
    </tripinfo>
    <tripinfo id="1578" depart="15.00" departLane="50211834#0_0" departPos="7.10" departSpeed="28.62" departDelay="0.93" arrival="60.00" arrivalLane="10873193#2_0" arrivalPos="224.37" arrivalSpeed="22.72" duration="45.00" routeLength="823.23" waitingTime="0.00" waitingCount="0" stopTime="0.00" timeLoss="9.66" rerouteNo="0" devices="tripinfo_1578 emissions_1578 ssm_1578 fcd_1578" vType="microbus" speedFactor="1.03" vaporized="">
        <emissions CO_abs="26.18" CO2_abs="156222.59" HC_abs="12.92" PMx_abs="34.35" NOx_abs="1267.10" fuel_abs="49143.88" electricity_abs="0.00"/>
    </tripinfo>
    <tripinfo id="87" depart="17.00" departLane="28718647#1_0" departPos="9.10" departSpeed="22.73" departDelay="0.28" arrival="61.00" arrivalLane="305873958#3-AddedOnRampEdge_2" arrivalPos="99.87" arrivalSpeed="16.85" duration="44.00" routeLength="771.35" waitingTime="0.00" waitingCount="0" stopTime="0.00" timeLoss="9.38" rerouteNo="0" devices="tripinfo_87 emissions_87 ssm_87 fcd_87" vType="truck" speedFactor="1.02" vaporized="">
        <emissions CO_abs="1845.16" CO2_abs="898393.17" HC_abs="378.34" PMx_abs="350.19" NOx_abs="12658.07" fuel_abs="282665.61" electricity_abs="0.00"/>
    </tripinfo>
    <tripinfo id="1596" depart="22.00" departLane="50211834#0_0" departPos="4.60" departSpeed="30.30" departDelay="0.24" arrival="63.00" arrivalLane="10873193#2_0" arrivalPos="224.37" arrivalSpeed="23.36" duration="41.00" routeLength="825.73" waitingTime="0.00" waitingCount="0" stopTime="0.00" timeLoss="8.33" rerouteNo="0" devices="tripinfo_1596 emissions_1596 ssm_1596 fcd_1596" vType="car" speedFactor="1.09" vaporized="">
        <emissions CO_abs="2775.43" CO2_abs="213322.05" HC_abs="17.70" PMx_abs="4.36" NOx_abs="84.75" fuel_abs="68039.37" electricity_abs="0.00"/>
    </tripinfo>
    <tripinfo id="1394" depart="23.00" departLane="690516091#0_0" departPos="4.60" departSpeed="28.51" departDelay="0.18" arrival="66.00" arrivalLane="305873958#3-AddedOnRampEdge_3" arrivalPos="99.87" arrivalSpeed="22.79" duration="43.00" routeLength="654.78" waitingTime="2.00" waitingCount="1" stopTime="0.00" timeLoss="15.97" rerouteNo="0" devices="tripinfo_1394 emissions_1394 ssm_1394 fcd_1394" vType="car" speedFactor="1.03" vaporized="">
        <emissions CO_abs="3750.94" CO2_abs="212092.08" HC_abs="22.18" PMx_abs="4.48" NOx_abs="87.58" fuel_abs="67647.40" electricity_abs="0.00"/>
    </tripinfo>
    <tripinfo id="1384" depart="33.00" departLane="690516091#0_0" departPos="4.60" departSpeed="26.97" departDelay="0.86" arrival="69.00" arrivalLane="305873958#3-AddedOnRampEdge_3" arrivalPos="99.87" arrivalSpeed="20.66" duration="36.00" routeLength="654.78" waitingTime="0.00" waitingCount="0" stopTime="0.00" timeLoss="7.91" rerouteNo="0" devices="tripinfo_1384 emissions_1384 ssm_1384 fcd_1384" vType="taxi" speedFactor="0.97" vaporized="">
        <emissions CO_abs="2328.58" CO2_abs="177204.37" HC_abs="14.88" PMx_abs="3.58" NOx_abs="71.18" fuel_abs="56519.61" electricity_abs="0.00"/>
    </tripinfo>
    <tripinfo id="1425" depart="25.00" departLane="50211834#0_0" departPos="7.10" departSpeed="27.54" departDelay="0.56" arrival="71.00" arrivalLane="10873193#2_0" arrivalPos="224.37" arrivalSpeed="21.42" duration="46.00" routeLength="820.42" waitingTime="0.00" waitingCount="0" stopTime="0.00" timeLoss="10.33" rerouteNo="0" devices="tripinfo_1425 emissions_1425 ssm_1425 fcd_1425" vType="microbus" speedFactor="0.99" vaporized="">
        <emissions CO_abs="27.45" CO2_abs="147486.87" HC_abs="12.45" PMx_abs="31.94" NOx_abs="1164.61" fuel_abs="46395.98" electricity_abs="0.00"/>
    </tripinfo>
    <tripinfo id="1286" depart="37.00" departLane="690516091#0_0" departPos="4.60" departSpeed="32.17" departDelay="0.65" arrival="73.00" arrivalLane="305873958#3-AddedOnRampEdge_3" arrivalPos="99.87" arrivalSpeed="24.26" duration="36.00" routeLength="654.78" waitingTime="0.00" waitingCount="0" stopTime="0.00" timeLoss="12.05" rerouteNo="0" devices="tripinfo_1286 emissions_1286 ssm_1286 fcd_1286" vType="car" speedFactor="1.16" vaporized="">
        <emissions CO_abs="2958.59" CO2_abs="190183.81" HC_abs="18.15" PMx_abs="4.11" NOx_abs="78.41" fuel_abs="60659.39" electricity_abs="0.00"/>
    </tripinfo>
    <tripinfo id="769" depart="48.00" departLane="29181613#1_1" departPos="4.60" departSpeed="22.94" departDelay="0.05" arrival="76.00" arrivalLane="305873958#3-AddedOnRampEdge_0" arrivalPos="99.87" arrivalSpeed="17.94" duration="28.00" routeLength="478.31" waitingTime="0.00" waitingCount="0" stopTime="0.00" timeLoss="2.91" rerouteNo="0" devices="tripinfo_769 emissions_769 ssm_769 fcd_769" vType="car" speedFactor="0.83" vaporized="">
        <emissions CO_abs="1046.65" CO2_abs="107387.89" HC_abs="7.10" PMx_abs="1.87" NOx_abs="41.18" fuel_abs="34251.58" electricity_abs="0.00"/>
    </tripinfo>
    <tripinfo id="1324" depart="56.00" departLane="690516091#0_0" departPos="4.60" departSpeed="29.61" departDelay="0.61" arrival="90.00" arrivalLane="305873958#3-AddedOnRampEdge_3" arrivalPos="99.87" arrivalSpeed="23.07" duration="34.00" routeLength="654.78" waitingTime="0.00" waitingCount="0" stopTime="0.00" timeLoss="8.86" rerouteNo="0" devices="tripinfo_1324 emissions_1324 ssm_1324 fcd_1324" vType="taxi" speedFactor="1.07" vaporized="">
        <emissions CO_abs="2830.97" CO2_abs="185450.25" HC_abs="17.39" PMx_abs="4.00" NOx_abs="77.30" fuel_abs="59149.50" electricity_abs="0.00"/>
    </tripinfo>
    <tripinfo id="594" depart="71.00" departLane="29181613#1_0" departPos="9.10" departSpeed="30.27" departDelay="0.28" arrival="96.00" arrivalLane="192591565#2_0" arrivalPos="258.68" arrivalSpeed="25.19" duration="25.00" routeLength="519.09" waitingTime="0.00" waitingCount="0" stopTime="0.00" timeLoss="6.62" rerouteNo="0" devices="tripinfo_594 emissions_594 ssm_594 fcd_594" vType="truck" speedFactor="1.09" vaporized="">
        <emissions CO_abs="1536.60" CO2_abs="784176.55" HC_abs="255.04" PMx_abs="284.88" NOx_abs="11150.98" fuel_abs="246728.53" electricity_abs="0.00"/>
    </tripinfo>
    <tripinfo id="110" depart="82.00" departLane="28718647#1_0" departPos="4.60" departSpeed="21.27" departDelay="0.37" arrival="124.00" arrivalLane="305873958#3-AddedOnRampEdge_2" arrivalPos="99.87" arrivalSpeed="20.13" duration="42.00" routeLength="775.85" waitingTime="0.00" waitingCount="0" stopTime="0.00" timeLoss="4.95" rerouteNo="0" devices="tripinfo_110 emissions_110 ssm_110 fcd_110" vType="car" speedFactor="0.96" vaporized="">
        <emissions CO_abs="1661.83" CO2_abs="170862.07" HC_abs="11.19" PMx_abs="2.97" NOx_abs="64.24" fuel_abs="54496.82" electricity_abs="0.00"/>
    </tripinfo>
    <tripinfo id="904" depart="93.00" departLane="29181613#1_0" departPos="4.60" departSpeed="28.99" departDelay="0.49" arrival="127.00" arrivalLane="192591565#2_0" arrivalPos="258.68" arrivalSpeed="28.60" duration="34.00" routeLength="523.59" waitingTime="3.00" waitingCount="1" stopTime="0.00" timeLoss="14.34" rerouteNo="0" devices="tripinfo_904 emissions_904 ssm_904 fcd_904" vType="car" speedFactor="1.04" vaporized="">
        <emissions CO_abs="3835.05" CO2_abs="205103.33" HC_abs="22.50" PMx_abs="4.55" NOx_abs="86.11" fuel_abs="65418.22" electricity_abs="0.00"/>
    </tripinfo>
    <tripinfo id="912" depart="96.00" departLane="29181613#1_0" departPos="4.60" departSpeed="27.71" departDelay="0.10" arrival="129.00" arrivalLane="192591565#2_0" arrivalPos="258.68" arrivalSpeed="27.14" duration="33.00" routeLength="523.59" waitingTime="0.00" waitingCount="0" stopTime="0.00" timeLoss="12.02" rerouteNo="0" devices="tripinfo_912 emissions_912 ssm_912 fcd_912" vType="car" speedFactor="1.00" vaporized="">
        <emissions CO_abs="3358.12" CO2_abs="198403.86" HC_abs="20.10" PMx_abs="4.27" NOx_abs="82.09" fuel_abs="63281.34" electricity_abs="0.00"/>
    </tripinfo>
    <tripinfo id="1772" depart="26.00" departLane="50211834#0_2" departPos="4.60" departSpeed="26.76" departDelay="0.14" arrival="136.00" arrivalLane="10873191#5_2" arrivalPos="21.02" arrivalSpeed="14.13" duration="110.00" routeLength="643.62" waitingTime="68.00" waitingCount="1" stopTime="0.00" timeLoss="83.82" rerouteNo="0" devices="tripinfo_1772 emissions_1772 ssm_1772 fcd_1772" vType="taxi" speedFactor="0.96" vaporized="">
        <emissions CO_abs="14367.86" CO2_abs="389062.61" HC_abs="74.61" PMx_abs="8.87" NOx_abs="169.05" fuel_abs="124096.36" electricity_abs="0.00"/>
    </tripinfo>
    <tripinfo id="1048" depart="60.00" departLane="690516091#0_0" departPos="4.60" departSpeed="29.92" departDelay="0.93" arrival="150.00" arrivalLane="10873191#5_2" arrivalPos="21.02" arrivalSpeed="29.38" duration="90.00" routeLength="714.93" waitingTime="49.00" waitingCount="1" stopTime="0.00" timeLoss="65.32" rerouteNo="0" devices="tripinfo_1048 emissions_1048 ssm_1048 fcd_1048" vType="taxi" speedFactor="1.08" vaporized="">
        <emissions CO_abs="12576.95" CO2_abs="382287.20" HC_abs="66.55" PMx_abs="8.90" NOx_abs="164.63" fuel_abs="121934.30" electricity_abs="0.00"/>
    </tripinfo>
    <tripinfo id="826" depart="89.00" departLane="29181613#1_0" departPos="4.60" departSpeed="30.33" departDelay="0.12" arrival="152.00" arrivalLane="305873958#3-AddedOnRampEdge_0" arrivalPos="99.87" arrivalSpeed="23.26" duration="63.00" routeLength="478.31" waitingTime="28.00" waitingCount="2" stopTime="0.00" timeLoss="44.05" rerouteNo="0" devices="tripinfo_826 emissions_826 ssm_826 fcd_826" vType="car" speedFactor="1.09" vaporized="">
        <emissions CO_abs="7961.93" CO2_abs="233931.40" HC_abs="41.88" PMx_abs="5.34" NOx_abs="101.75" fuel_abs="74614.91" electricity_abs="0.00"/>
    </tripinfo>
    <tripinfo id="1141" depart="24.00" departLane="690516091#0_0" departPos="4.60" departSpeed="31.19" departDelay="0.11" arrival="154.00" arrivalLane="10873191#5_2" arrivalPos="21.02" arrivalSpeed="28.41" duration="130.00" routeLength="714.93" waitingTime="75.00" waitingCount="4" stopTime="0.00" timeLoss="105.94" rerouteNo="0" devices="tripinfo_1141 emissions_1141 ssm_1141 fcd_1141" vType="car" speedFactor="1.12" vaporized="">
        <emissions CO_abs="18022.05" CO2_abs="481244.55" HC_abs="93.66" PMx_abs="11.26" NOx_abs="210.05" fuel_abs="153498.87" electricity_abs="0.00"/>
    </tripinfo>
    <tripinfo id="708" depart="77.00" departLane="29181613#1_0" departPos="7.10" departSpeed="25.02" departDelay="0.95" arrival="158.00" arrivalLane="305873958#3-AddedOnRampEdge_0" arrivalPos="99.87" arrivalSpeed="19.98" duration="81.00" routeLength="475.81" waitingTime="45.00" waitingCount="2" stopTime="0.00" timeLoss="57.97" rerouteNo="0" devices="tripinfo_708 emissions_708 ssm_708 fcd_708" vType="microbus" speedFactor="0.90" vaporized="">
        <emissions CO_abs="79.85" CO2_abs="153429.57" HC_abs="12.76" PMx_abs="45.35" NOx_abs="1673.01" fuel_abs="48266.56" electricity_abs="0.00"/>
    </tripinfo>
    <tripinfo id="1381" depart="101.00" departLane="690516091#0_0" departPos="4.60" departSpeed="26.40" departDelay="0.73" arrival="161.00" arrivalLane="305873958#3-AddedOnRampEdge_3" arrivalPos="99.87" arrivalSpeed="20.70" duration="60.00" routeLength="654.78" waitingTime="15.00" waitingCount="1" stopTime="0.00" timeLoss="30.89" rerouteNo="0" devices="tripinfo_1381 emissions_1381 ssm_1381 fcd_1381" vType="taxi" speedFactor="0.95" vaporized="">
        <emissions CO_abs="5844.31" CO2_abs="246424.54" HC_abs="32.37" PMx_abs="5.17" NOx_abs="102.16" fuel_abs="78598.74" electricity_abs="0.00"/>
    </tripinfo>
    <tripinfo id="411" depart="20.00" departLane="29181613#1_1" departPos="4.60" departSpeed="23.80" departDelay="0.39" arrival="162.00" arrivalLane="10873193#2_0" arrivalPos="224.37" arrivalSpeed="18.29" duration="142.00" routeLength="791.56" waitingTime="78.00" waitingCount="2" stopTime="0.00" timeLoss="100.99" rerouteNo="0" devices="tripinfo_411 emissions_411 ssm_411 fcd_411" vType="car" speedFactor="0.86" vaporized="">
        <emissions CO_abs="16674.66" CO2_abs="435046.01" HC_abs="86.09" PMx_abs="9.48" NOx_abs="187.27" fuel_abs="138764.13" electricity_abs="0.00"/>
    </tripinfo>
    <tripinfo id="9" depart="19.00" departLane="28718647#1_0" departPos="4.60" departSpeed="19.69" departDelay="0.61" arrival="163.00" arrivalLane="10873191#5_2" arrivalPos="21.02" arrivalSpeed="24.53" duration="144.00" routeLength="817.88" waitingTime="77.00" waitingCount="3" stopTime="0.00" timeLoss="102.69" rerouteNo="0" devices="tripinfo_9 emissions_9 ssm_9 fcd_9" vType="car" speedFactor="0.89" vaporized="">
        <emissions CO_abs="17240.38" CO2_abs="474959.77" HC_abs="89.37" PMx_abs="10.32" NOx_abs="203.48" fuel_abs="151494.61" electricity_abs="0.00"/>
    </tripinfo>
    <tripinfo id="692" depart="109.00" departLane="29181613#1_2" departPos="4.60" departSpeed="19.85" departDelay="0.75" arrival="163.00" arrivalLane="305873958#3-AddedOnRampEdge_0" arrivalPos="99.87" arrivalSpeed="21.40" duration="54.00" routeLength="478.31" waitingTime="14.00" waitingCount="1" stopTime="0.00" timeLoss="33.12" rerouteNo="0" devices="tripinfo_692 emissions_692 ssm_692 fcd_692" vType="car" speedFactor="1.00" vaporized="">
        <emissions CO_abs="5889.56" CO2_abs="221938.45" HC_abs="32.04" PMx_abs="4.84" NOx_abs="95.01" fuel_abs="70788.82" electricity_abs="0.00"/>
    </tripinfo>
    <tripinfo id="870" depart="109.00" departLane="29181613#1_3" departPos="4.60" departSpeed="19.03" departDelay="0.14" arrival="165.00" arrivalLane="305873958#3-AddedOnRampEdge_0" arrivalPos="99.87" arrivalSpeed="25.12" duration="56.00" routeLength="478.31" waitingTime="14.00" waitingCount="1" stopTime="0.00" timeLoss="37.35" rerouteNo="0" devices="tripinfo_870 emissions_870 ssm_870 fcd_870" vType="car" speedFactor="1.14" vaporized="">
        <emissions CO_abs="5769.68" CO2_abs="229567.39" HC_abs="31.62" PMx_abs="4.92" NOx_abs="97.21" fuel_abs="73222.00" electricity_abs="0.00"/>
    </tripinfo>
    <tripinfo id="518" depart="5.00" departLane="29181613#1_0" departPos="4.60" departSpeed="26.07" departDelay="0.23" arrival="166.00" arrivalLane="10873193#2_0" arrivalPos="224.37" arrivalSpeed="19.76" duration="161.00" routeLength="791.56" waitingTime="102.00" waitingCount="4" stopTime="0.00" timeLoss="124.78" rerouteNo="0" devices="tripinfo_518 emissions_518 ssm_518 fcd_518" vType="car" speedFactor="0.94" vaporized="">
        <emissions CO_abs="21223.75" CO2_abs="517618.54" HC_abs="108.58" PMx_abs="11.62" NOx_abs="224.09" fuel_abs="165102.30" electricity_abs="0.00"/>
    </tripinfo>
    <tripinfo id="1241" depart="50.00" departLane="690516091#0_0" departPos="4.60" departSpeed="24.24" departDelay="0.95" arrival="167.00" arrivalLane="192591565#2_0" arrivalPos="258.68" arrivalSpeed="23.44" duration="117.00" routeLength="904.19" waitingTime="52.00" waitingCount="3" stopTime="0.00" timeLoss="77.71" rerouteNo="0" devices="tripinfo_1241 emissions_1241 ssm_1241 fcd_1241" vType="car" speedFactor="0.87" vaporized="">
        <emissions CO_abs="13513.83" CO2_abs="429964.46" HC_abs="71.47" PMx_abs="9.32" NOx_abs="181.60" fuel_abs="137141.63" electricity_abs="0.00"/>
    </tripinfo>
    <tripinfo id="881" depart="111.00" departLane="29181613#1_2" departPos="4.60" departSpeed="19.69" departDelay="0.91" arrival="168.00" arrivalLane="192591565#2_0" arrivalPos="258.68" arrivalSpeed="25.63" duration="57.00" routeLength="523.59" waitingTime="16.00" waitingCount="2" stopTime="0.00" timeLoss="37.53" rerouteNo="0" devices="tripinfo_881 emissions_881 ssm_881 fcd_881" vType="car" speedFactor="1.02" vaporized="">
        <emissions CO_abs="6640.64" CO2_abs="252548.76" HC_abs="36.23" PMx_abs="5.59" NOx_abs="108.07" fuel_abs="80552.08" electricity_abs="0.00"/>
    </tripinfo>
    <tripinfo id="569" depart="47.00" departLane="29181613#1_0" departPos="2.30" departSpeed="24.71" departDelay="0.10" arrival="170.00" arrivalLane="10873193#2_0" arrivalPos="224.37" arrivalSpeed="18.38" duration="123.00" routeLength="793.86" waitingTime="67.00" waitingCount="3" stopTime="0.00" timeLoss="84.07" rerouteNo="0" devices="tripinfo_569 emissions_569 ssm_569 fcd_569" vType="motorcycle" speedFactor="0.89" vaporized="">
        <emissions CO_abs="14560.33" CO2_abs="392184.33" HC_abs="75.48" PMx_abs="8.82" NOx_abs="170.20" fuel_abs="125092.18" electricity_abs="0.00"/>
    </tripinfo>
    <tripinfo id="390" depart="24.00" departLane="29181613#1_0" departPos="4.60" departSpeed="29.09" departDelay="0.95" arrival="172.00" arrivalLane="10873193#2_0" arrivalPos="224.37" arrivalSpeed="20.18" duration="148.00" routeLength="791.56" waitingTime="80.00" waitingCount="3" stopTime="0.00" timeLoss="114.48" rerouteNo="0" devices="tripinfo_390 emissions_390 ssm_390 fcd_390" vType="car" speedFactor="1.05" vaporized="">
        <emissions CO_abs="18380.50" CO2_abs="470108.57" HC_abs="94.76" PMx_abs="10.53" NOx_abs="204.29" fuel_abs="149947.75" electricity_abs="0.00"/>
    </tripinfo>
    <tripinfo id="1749" depart="35.00" departLane="50211834#0_0" departPos="9.10" departSpeed="26.89" departDelay="0.00" arrival="173.00" arrivalLane="10873191#5_2" arrivalPos="21.02" arrivalSpeed="18.47" duration="138.00" routeLength="639.12" waitingTime="64.00" waitingCount="3" stopTime="0.00" timeLoss="111.75" rerouteNo="0" devices="tripinfo_1749 emissions_1749 ssm_1749 fcd_1749" vType="truck" speedFactor="0.97" vaporized="">
        <emissions CO_abs="3355.60" CO2_abs="1859796.58" HC_abs="1071.89" PMx_abs="739.36" NOx_abs="25535.47" fuel_abs="585188.80" electricity_abs="0.00"/>
    </tripinfo>
    <tripinfo id="1151" depart="64.00" departLane="690516091#0_0" departPos="4.60" departSpeed="32.55" departDelay="0.82" arrival="174.00" arrivalLane="10873191#5_2" arrivalPos="21.02" arrivalSpeed="18.38" duration="110.00" routeLength="714.93" waitingTime="58.00" waitingCount="2" stopTime="0.00" timeLoss="87.13" rerouteNo="0" devices="tripinfo_1151 emissions_1151 ssm_1151 fcd_1151" vType="car" speedFactor="1.17" vaporized="">
        <emissions CO_abs="13266.48" CO2_abs="344773.39" HC_abs="68.68" PMx_abs="7.79" NOx_abs="146.56" fuel_abs="109970.42" electricity_abs="0.00"/>
    </tripinfo>
    <tripinfo id="1348" depart="17.00" departLane="690516091#0_0" departPos="4.60" departSpeed="25.43" departDelay="0.92" arrival="176.00" arrivalLane="192591565#2_0" arrivalPos="258.68" arrivalSpeed="24.97" duration="159.00" routeLength="904.19" waitingTime="90.00" waitingCount="4" stopTime="0.00" timeLoss="121.50" rerouteNo="0" devices="tripinfo_1348 emissions_1348 ssm_1348 fcd_1348" vType="taxi" speedFactor="0.92" vaporized="">
        <emissions CO_abs="20477.21" CO2_abs="558717.59" HC_abs="106.50" PMx_abs="12.59" NOx_abs="241.69" fuel_abs="178210.00" electricity_abs="0.00"/>
    </tripinfo>
    <tripinfo id="5" depart="56.00" departLane="28718647#1_0" departPos="7.10" departSpeed="20.69" departDelay="0.35" arrival="177.00" arrivalLane="10873191#5_2" arrivalPos="21.02" arrivalSpeed="23.96" duration="121.00" routeLength="815.38" waitingTime="37.00" waitingCount="4" stopTime="0.00" timeLoss="82.93" rerouteNo="0" devices="tripinfo_5 emissions_5 ssm_5 fcd_5" vType="microbus" speedFactor="0.93" vaporized="">
        <emissions CO_abs="107.51" CO2_abs="241872.00" HC_abs="20.25" PMx_abs="65.71" NOx_abs="2412.18" fuel_abs="76088.86" electricity_abs="0.00"/>
    </tripinfo>
    <tripinfo id="917" depart="139.00" departLane="29181613#1_0" departPos="4.60" departSpeed="28.39" departDelay="0.26" arrival="178.00" arrivalLane="192591565#2_0" arrivalPos="258.68" arrivalSpeed="27.65" duration="39.00" routeLength="523.59" waitingTime="1.00" waitingCount="1" stopTime="0.00" timeLoss="18.91" rerouteNo="0" devices="tripinfo_917 emissions_917 ssm_917 fcd_917" vType="car" speedFactor="1.02" vaporized="">
        <emissions CO_abs="4000.82" CO2_abs="204142.48" HC_abs="23.16" PMx_abs="4.42" NOx_abs="85.01" fuel_abs="65111.97" electricity_abs="0.00"/>
    </tripinfo>
    <tripinfo id="645" depart="146.00" departLane="29181613#1_0" departPos="2.30" departSpeed="28.42" departDelay="0.14" arrival="179.00" arrivalLane="192591565#2_0" arrivalPos="258.68" arrivalSpeed="27.87" duration="33.00" routeLength="525.89" waitingTime="0.00" waitingCount="0" stopTime="0.00" timeLoss="13.08" rerouteNo="0" devices="tripinfo_645 emissions_645 ssm_645 fcd_645" vType="motorcycle" speedFactor="1.02" vaporized="">
        <emissions CO_abs="3436.71" CO2_abs="203967.35" HC_abs="20.61" PMx_abs="4.50" NOx_abs="85.55" fuel_abs="65055.65" electricity_abs="0.00"/>
    </tripinfo>
    <tripinfo id="60" depart="28.00" departLane="28718647#1_0" departPos="4.60" departSpeed="19.52" departDelay="0.52" arrival="184.00" arrivalLane="192591565#2_0" arrivalPos="258.68" arrivalSpeed="23.70" duration="156.00" routeLength="1007.14" waitingTime="68.00" waitingCount="5" stopTime="0.00" timeLoss="105.39" rerouteNo="0" devices="tripinfo_60 emissions_60 ssm_60 fcd_60" vType="car" speedFactor="0.88" vaporized="">
        <emissions CO_abs="17192.97" CO2_abs="507546.24" HC_abs="90.01" PMx_abs="10.75" NOx_abs="215.25" fuel_abs="161888.08" electricity_abs="0.00"/>
    </tripinfo>
    <tripinfo id="647" depart="160.00" departLane="29181613#1_0" departPos="4.60" departSpeed="27.28" departDelay="0.46" arrival="185.00" arrivalLane="192591565#2_0" arrivalPos="258.68" arrivalSpeed="25.52" duration="25.00" routeLength="523.59" waitingTime="0.00" waitingCount="0" stopTime="0.00" timeLoss="4.63" rerouteNo="0" devices="tripinfo_647 emissions_647 ssm_647 fcd_647" vType="car" speedFactor="0.98" vaporized="">
        <emissions CO_abs="2056.24" CO2_abs="151043.68" HC_abs="13.01" PMx_abs="3.24" NOx_abs="61.62" fuel_abs="48175.46" electricity_abs="0.00"/>
    </tripinfo>
    <tripinfo id="1413" depart="45.00" departLane="50211834#0_0" departPos="4.60" departSpeed="27.09" departDelay="0.01" arrival="197.00" arrivalLane="10873193#2_0" arrivalPos="224.37" arrivalSpeed="20.41" duration="152.00" routeLength="825.73" waitingTime="79.00" waitingCount="4" stopTime="0.00" timeLoss="115.18" rerouteNo="0" devices="tripinfo_1413 emissions_1413 ssm_1413 fcd_1413" vType="car" speedFactor="0.97" vaporized="">
        <emissions CO_abs="19366.08" CO2_abs="497190.03" HC_abs="99.91" PMx_abs="11.08" NOx_abs="215.03" fuel_abs="158585.82" electricity_abs="0.00"/>
    </tripinfo>
    <tripinfo id="128" depart="117.00" departLane="28718647#1_0" departPos="4.60" departSpeed="23.55" departDelay="0.41" arrival="202.00" arrivalLane="305873958#3-AddedOnRampEdge_2" arrivalPos="99.87" arrivalSpeed="22.60" duration="85.00" routeLength="775.85" waitingTime="36.00" waitingCount="1" stopTime="0.00" timeLoss="52.03" rerouteNo="0" devices="tripinfo_128 emissions_128 ssm_128 fcd_128" vType="taxi" speedFactor="1.06" vaporized="">
        <emissions CO_abs="9113.43" CO2_abs="324187.76" HC_abs="48.90" PMx_abs="6.88" NOx_abs="135.74" fuel_abs="103402.55" electricity_abs="0.00"/>
    </tripinfo>
    <tripinfo id="141" depart="40.00" departLane="28718647#1_0" departPos="4.60" departSpeed="22.45" departDelay="0.97" arrival="203.00" arrivalLane="192591565#2_0" arrivalPos="258.68" arrivalSpeed="27.02" duration="163.00" routeLength="1007.14" waitingTime="67.00" waitingCount="9" stopTime="0.00" timeLoss="120.31" rerouteNo="0" devices="tripinfo_141 emissions_141 ssm_141 fcd_141" vType="car" speedFactor="1.01" vaporized="">
        <emissions CO_abs="18434.37" CO2_abs="535193.04" HC_abs="96.28" PMx_abs="11.62" NOx_abs="227.38" fuel_abs="170706.30" electricity_abs="0.00"/>
    </tripinfo>
    <tripinfo id="222" depart="102.00" departLane="28718647#1_0" departPos="4.60" departSpeed="19.48" departDelay="0.57" arrival="207.00" arrivalLane="192591565#2_0" arrivalPos="258.68" arrivalSpeed="23.72" duration="105.00" routeLength="1007.14" waitingTime="18.00" waitingCount="3" stopTime="0.00" timeLoss="55.27" rerouteNo="0" devices="tripinfo_222 emissions_222 ssm_222 fcd_222" vType="car" speedFactor="0.88" vaporized="">
        <emissions CO_abs="8203.92" CO2_abs="346268.95" HC_abs="44.98" PMx_abs="6.76" NOx_abs="140.51" fuel_abs="110445.16" electricity_abs="0.00"/>
    </tripinfo>
    <tripinfo id="91" depart="170.00" departLane="28718647#1_0" departPos="2.30" departSpeed="22.60" departDelay="0.25" arrival="211.00" arrivalLane="305873958#3-AddedOnRampEdge_2" arrivalPos="99.87" arrivalSpeed="21.53" duration="41.00" routeLength="778.15" waitingTime="0.00" waitingCount="0" stopTime="0.00" timeLoss="5.61" rerouteNo="0" devices="tripinfo_91 emissions_91 ssm_91 fcd_91" vType="motorcycle" speedFactor="1.02" vaporized="">
        <emissions CO_abs="2454.99" CO2_abs="201817.75" HC_abs="15.73" PMx_abs="3.96" NOx_abs="79.91" fuel_abs="64369.98" electricity_abs="0.00"/>
    </tripinfo>
    <tripinfo id="197" depart="37.00" departLane="28718647#1_0" departPos="12.10" departSpeed="22.22" departDelay="0.14" arrival="213.00" arrivalLane="192591565#2_0" arrivalPos="258.68" arrivalSpeed="26.85" duration="176.00" routeLength="999.64" waitingTime="54.00" waitingCount="5" stopTime="0.00" timeLoss="132.36" rerouteNo="0" devices="tripinfo_197 emissions_197 ssm_197 fcd_197" vType="bus" speedFactor="1.00" vaporized="">
        <emissions CO_abs="4039.58" CO2_abs="2092151.21" HC_abs="872.63" PMx_abs="422.78" NOx_abs="17430.04" fuel_abs="661957.91" electricity_abs="0.00"/>
    </tripinfo>
    <tripinfo id="1692" depart="102.00" departLane="50211834#0_0" departPos="4.60" departSpeed="23.62" departDelay="0.13" arrival="214.00" arrivalLane="10873193#2_1" arrivalPos="224.37" arrivalSpeed="18.29" duration="112.00" routeLength="822.92" waitingTime="37.00" waitingCount="2" stopTime="0.00" timeLoss="70.07" rerouteNo="0" devices="tripinfo_1692 emissions_1692 ssm_1692 fcd_1692" vType="car" speedFactor="0.85" vaporized="">
        <emissions CO_abs="11389.27" CO2_abs="349832.44" HC_abs="59.67" PMx_abs="7.14" NOx_abs="145.53" fuel_abs="111583.36" electricity_abs="0.00"/>
    </tripinfo>