<?xml version="1.0" encoding="UTF-8"?>

<!-- generated on 2026-02-26 14:38:58 by Eclipse SUMO GUI Version 1.24.0
<sumoConfiguration xmlns:xsi="http://www.w3.org/2001/XMLSchema-instance" xsi:noNamespaceSchemaLocation="http://sumo.dlr.de/xsd/sumoConfiguration.xsd">

    <input>
        <net-file value="tahrirupdated.net.xml"/>
        <route-files value="od_route_tahrir.odtrips.rou.xml"/>
        <additional-files value="tahrir.add.xml"/>
    </input>

    <output>
        <netstate-dump value="outputs/netstate.xml.gz"/>
        <emission-output value="outputs/emission.xml.gz"/>
        <fcd-output value="outputs/fcd.xml"/>
        <full-output value="outputs/full.xml.gz"/>
        <summary-output value="outputs/summary.xml"/>
        <tripinfo-output value="outputs/tripinfo.xml"/>
        <lanechange-output value="outputs/lanechange.xml.gz"/>
    </output>

    <time>
        <begin value="0"/>
        <end value="3600"/>
    </time>

    <report>
        <verbose value="true"/>
        <no-step-log value="false"/>
    </report>

    <ssm_device>
        <device.ssm.probability value="1.0"/>
        <device.ssm.measures value="TTC DRAC PET"/>
        <device.ssm.thresholds value="3.0 3.0 2.0"/>
        <device.ssm.trajectories value="true"/>
        <device.ssm.range value="50.0"/>
        <device.ssm.extratime value="5.0"/>
        <device.ssm.file value="outputs/ssm.xml"/>
    </ssm_device>

    <gui_only>
        <gui-settings-file value="gui_settings.xml"/>
    </gui_only>

</sumoConfiguration>
-->

<tripinfos xmlns:xsi="http://www.w3.org/2001/XMLSchema-instance" xsi:noNamespaceSchemaLocation="http://sumo.dlr.de/xsd/tripinfo_file.xsd">
    <tripinfo id="746" depart="19.00" departLane="29181613#1_0" departPos="4.60" departSpeed="26.05" departDelay="0.03" arrival="44.00" arrivalLane="192591565#2_0" arrivalPos="258.68" arrivalSpeed="25.55" duration="25.00" routeLength="523.59" waitingTime="0.00" waitingCount="0" stopTime="0.00" timeLoss="3.15" rerouteNo="0" devices="tripinfo_746 emissions_746 ssm_746 fcd_746" vType="car" speedFactor="0.94" vaporized="">
        <emissions CO_abs="1935.02" CO2_abs="148145.76" HC_abs="12.36" PMx_abs="3.12" NOx_abs="59.48" fuel_abs="47251.21" electricity_abs="0.00"/>
    </tripinfo>
    <tripinfo id="244" depart="12.00" departLane="28718647#1_0" departPos="4.60" departSpeed="24.06" departDelay="0.88" arrival="51.00" arrivalLane="305873958#3-AddedOnRampEdge_2" arrivalPos="99.87" arrivalSpeed="24.05" duration="39.00" routeLength="775.85" waitingTime="0.00" waitingCount="0" stopTime="0.00" timeLoss="6.59" rerouteNo="0" devices="tripinfo_244 emissions_244 ssm_244 fcd_244" vType="car" speedFactor="1.08" vaporized="">
        <emissions CO_abs="2489.81" CO2_abs="198955.37" HC_abs="15.90" PMx_abs="3.94" NOx_abs="78.27" fuel_abs="63457.12" electricity_abs="0.00"/>
    </tripinfo>
    <tripinfo id="282" depart="3.00" departLane="28718647#1_0" departPos="4.60" departSpeed="22.89" departDelay="0.17" arrival="55.00" arrivalLane="192591565#2_0" arrivalPos="258.68" arrivalSpeed="27.49" duration="52.00" routeLength="1007.14" waitingTime="0.00" waitingCount="0" stopTime="0.00" timeLoss="8.93" rerouteNo="0" devices="tripinfo_282 emissions_282 ssm_282 fcd_282" vType="taxi" speedFactor="1.03" vaporized="">
        <emissions CO_abs="3818.61" CO2_abs="296116.57" HC_abs="24.51" PMx_abs="6.09" NOx_abs="119.79" fuel_abs="94446.62" electricity_abs="0.00"/>
    </tripinfo>
    <tripinfo id="87" depart="17.00" departLane="28718647#1_0" departPos="9.10" departSpeed="22.73" departDelay="0.28" arrival="61.00" arrivalLane="305873958#3-AddedOnRampEdge_2" arrivalPos="99.87" arrivalSpeed="16.58" duration="44.00" routeLength="771.35" waitingTime="0.00" waitingCount="0" stopTime="0.00" timeLoss="9.60" rerouteNo="0" devices="tripinfo_87 emissions_87 ssm_87 fcd_87" vType="truck" speedFactor="1.02" vaporized="">
        <emissions CO_abs="1849.43" CO2_abs="896700.23" HC_abs="383.52" PMx_abs="351.33" NOx_abs="12626.93" fuel_abs="282132.92" electricity_abs="0.00"/>
    </tripinfo>
    <tripinfo id="1394" depart="23.00" departLane="690516091#0_0" departPos="4.60" departSpeed="28.51" departDelay="0.18" arrival="66.00" arrivalLane="305873958#3-AddedOnRampEdge_3" arrivalPos="99.87" arrivalSpeed="21.91" duration="43.00" routeLength="654.78" waitingTime="3.00" waitingCount="1" stopTime="0.00" timeLoss="16.08" rerouteNo="0" devices="tripinfo_1394 emissions_1394 ssm_1394 fcd_1394" vType="car" speedFactor="1.03" vaporized="">
        <emissions CO_abs="3689.33" CO2_abs="208731.98" HC_abs="21.82" PMx_abs="4.39" NOx_abs="86.03" fuel_abs="66575.70" electricity_abs="0.00"/>
    </tripinfo>
    <tripinfo id="1384" depart="33.00" departLane="690516091#0_0" departPos="4.60" departSpeed="26.97" departDelay="0.86" arrival="71.00" arrivalLane="305873958#3-AddedOnRampEdge_3" arrivalPos="99.87" arrivalSpeed="21.42" duration="38.00" routeLength="654.78" waitingTime="0.00" waitingCount="0" stopTime="0.00" timeLoss="9.92" rerouteNo="0" devices="tripinfo_1384 emissions_1384 ssm_1384 fcd_1384" vType="taxi" speedFactor="0.97" vaporized="">
        <emissions CO_abs="2558.27" CO2_abs="187095.08" HC_abs="16.05" PMx_abs="3.76" NOx_abs="75.33" fuel_abs="59674.30" electricity_abs="0.00"/>
    </tripinfo>
    <tripinfo id="1286" depart="37.00" departLane="690516091#0_0" departPos="4.60" departSpeed="32.17" departDelay="0.65" arrival="73.00" arrivalLane="305873958#3-AddedOnRampEdge_3" arrivalPos="99.87" arrivalSpeed="22.93" duration="36.00" routeLength="654.78" waitingTime="0.00" waitingCount="0" stopTime="0.00" timeLoss="12.15" rerouteNo="0" devices="tripinfo_1286 emissions_1286 ssm_1286 fcd_1286" vType="car" speedFactor="1.16" vaporized="">
        <emissions CO_abs="2856.71" CO2_abs="186710.32" HC_abs="17.59" PMx_abs="3.98" NOx_abs="76.42" fuel_abs="59551.57" electricity_abs="0.00"/>
    </tripinfo>
    <tripinfo id="769" depart="48.00" departLane="29181613#1_1" departPos="4.60" departSpeed="22.94" departDelay="0.05" arrival="76.00" arrivalLane="305873958#3-AddedOnRampEdge_0" arrivalPos="99.87" arrivalSpeed="18.27" duration="28.00" routeLength="478.31" waitingTime="0.00" waitingCount="0" stopTime="0.00" timeLoss="2.90" rerouteNo="0" devices="tripinfo_769 emissions_769 ssm_769 fcd_769" vType="car" speedFactor="0.83" vaporized="">
        <emissions CO_abs="1211.63" CO2_abs="118979.22" HC_abs="8.14" PMx_abs="2.13" NOx_abs="46.10" fuel_abs="37948.62" electricity_abs="0.00"/>
    </tripinfo>
    <tripinfo id="1578" depart="15.00" departLane="50211834#0_0" departPos="7.10" departSpeed="28.62" departDelay="0.93" arrival="79.00" arrivalLane="10873193#2_0" arrivalPos="224.37" arrivalSpeed="22.52" duration="64.00" routeLength="823.23" waitingTime="13.00" waitingCount="1" stopTime="0.00" timeLoss="28.86" rerouteNo="0" devices="tripinfo_1578 emissions_1578 ssm_1578 fcd_1578" vType="microbus" speedFactor="1.03" vaporized="">
        <emissions CO_abs="47.49" CO2_abs="174849.53" HC_abs="14.51" PMx_abs="42.29" NOx_abs="1557.68" fuel_abs="55003.89" electricity_abs="0.00"/>
    </tripinfo>
    <tripinfo id="1596" depart="22.00" departLane="50211834#0_0" departPos="4.60" departSpeed="30.30" departDelay="0.24" arrival="81.00" arrivalLane="10873193#2_0" arrivalPos="224.37" arrivalSpeed="23.79" duration="59.00" routeLength="825.73" waitingTime="4.00" waitingCount="2" stopTime="0.00" timeLoss="25.59" rerouteNo="0" devices="tripinfo_1596 emissions_1596 ssm_1596 fcd_1596" vType="car" speedFactor="1.09" vaporized="">
        <emissions CO_abs="5068.71" CO2_abs="265208.35" HC_abs="29.42" PMx_abs="5.54" NOx_abs="108.42" fuel_abs="84589.34" electricity_abs="0.00"/>
    </tripinfo>
    <tripinfo id="1425" depart="25.00" departLane="50211834#0_0" departPos="7.10" departSpeed="27.54" departDelay="0.56" arrival="87.00" arrivalLane="10873193#2_0" arrivalPos="224.37" arrivalSpeed="21.52" duration="62.00" routeLength="820.42" waitingTime="1.00" waitingCount="1" stopTime="0.00" timeLoss="26.19" rerouteNo="0" devices="tripinfo_1425 emissions_1425 ssm_1425 fcd_1425" vType="microbus" speedFactor="0.99" vaporized="">
        <emissions CO_abs="42.38" CO2_abs="165298.40" HC_abs="13.93" PMx_abs="38.05" NOx_abs="1387.69" fuel_abs="51999.35" electricity_abs="0.00"/>
    </tripinfo>
    <tripinfo id="390" depart="24.00" departLane="29181613#1_0" departPos="4.60" departSpeed="29.09" departDelay="0.95" arrival="89.00" arrivalLane="10873193#2_0" arrivalPos="224.37" arrivalSpeed="22.25" duration="65.00" routeLength="791.56" waitingTime="9.00" waitingCount="2" stopTime="0.00" timeLoss="31.87" rerouteNo="0" devices="tripinfo_390 emissions_390 ssm_390 fcd_390" vType="car" speedFactor="1.05" vaporized="">
        <emissions CO_abs="5587.98" CO2_abs="264107.38" HC_abs="31.68" PMx_abs="5.48" NOx_abs="109.63" fuel_abs="84238.40" electricity_abs="0.00"/>
    </tripinfo>
    <tripinfo id="1324" depart="56.00" departLane="690516091#0_0" departPos="4.60" departSpeed="29.61" departDelay="0.61" arrival="91.00" arrivalLane="305873958#3-AddedOnRampEdge_3" arrivalPos="99.87" arrivalSpeed="23.19" duration="35.00" routeLength="654.78" waitingTime="0.00" waitingCount="0" stopTime="0.00" timeLoss="9.43" rerouteNo="0" devices="tripinfo_1324 emissions_1324 ssm_1324 fcd_1324" vType="taxi" speedFactor="1.07" vaporized="">
        <emissions CO_abs="2965.31" CO2_abs="203001.34" HC_abs="18.50" PMx_abs="4.33" NOx_abs="82.87" fuel_abs="64747.54" electricity_abs="0.00"/>
    </tripinfo>
    <tripinfo id="594" depart="71.00" departLane="29181613#1_0" departPos="9.10" departSpeed="30.27" departDelay="0.28" arrival="96.00" arrivalLane="192591565#2_0" arrivalPos="258.68" arrivalSpeed="24.43" duration="25.00" routeLength="519.09" waitingTime="0.00" waitingCount="0" stopTime="0.00" timeLoss="6.99" rerouteNo="0" devices="tripinfo_594 emissions_594 ssm_594 fcd_594" vType="truck" speedFactor="1.09" vaporized="">
        <emissions CO_abs="1490.64" CO2_abs="756354.63" HC_abs="255.20" PMx_abs="277.28" NOx_abs="10742.66" fuel_abs="237974.91" electricity_abs="0.00"/>
    </tripinfo>
    <tripinfo id="518" depart="5.00" departLane="29181613#1_0" departPos="4.60" departSpeed="26.07" departDelay="0.23" arrival="102.00" arrivalLane="10873193#2_2" arrivalPos="224.37" arrivalSpeed="19.95" duration="97.00" routeLength="791.56" waitingTime="42.00" waitingCount="2" stopTime="0.00" timeLoss="60.32" rerouteNo="0" devices="tripinfo_518 emissions_518 ssm_518 fcd_518" vType="car" speedFactor="0.94" vaporized="">
        <emissions CO_abs="10836.59" CO2_abs="351565.48" HC_abs="57.51" PMx_abs="7.56" NOx_abs="148.97" fuel_abs="112135.34" electricity_abs="0.00"/>
    </tripinfo>
    <tripinfo id="411" depart="20.00" departLane="29181613#1_1" departPos="4.60" departSpeed="23.80" departDelay="0.39" arrival="107.00" arrivalLane="10873193#2_0" arrivalPos="224.37" arrivalSpeed="18.99" duration="87.00" routeLength="791.56" waitingTime="14.00" waitingCount="3" stopTime="0.00" timeLoss="47.19" rerouteNo="0" devices="tripinfo_411 emissions_411 ssm_411 fcd_411" vType="car" speedFactor="0.86" vaporized="">
        <emissions CO_abs="7865.52" CO2_abs="331314.62" HC_abs="43.59" PMx_abs="6.80" NOx_abs="139.68" fuel_abs="105674.94" electricity_abs="0.00"/>
    </tripinfo>
    <tripinfo id="525" depart="38.00" departLane="29181613#1_0" departPos="7.10" departSpeed="28.28" departDelay="0.30" arrival="108.00" arrivalLane="10873193#2_1" arrivalPos="224.37" arrivalSpeed="22.02" duration="70.00" routeLength="789.06" waitingTime="5.00" waitingCount="2" stopTime="0.00" timeLoss="35.51" rerouteNo="0" devices="tripinfo_525 emissions_525 ssm_525 fcd_525" vType="microbus" speedFactor="1.02" vaporized="">
        <emissions CO_abs="52.83" CO2_abs="204386.16" HC_abs="16.38" PMx_abs="48.84" NOx_abs="1830.82" fuel_abs="64295.47" electricity_abs="0.00"/>
    </tripinfo>
    <tripinfo id="569" depart="47.00" departLane="29181613#1_0" departPos="2.30" departSpeed="24.71" departDelay="0.10" arrival="109.00" arrivalLane="10873193#2_0" arrivalPos="224.37" arrivalSpeed="17.84" duration="62.00" routeLength="793.86" waitingTime="1.00" waitingCount="1" stopTime="0.00" timeLoss="22.70" rerouteNo="0" devices="tripinfo_569 emissions_569 ssm_569 fcd_569" vType="motorcycle" speedFactor="0.89" vaporized="">
        <emissions CO_abs="5144.19" CO2_abs="281347.66" HC_abs="30.10" PMx_abs="5.90" NOx_abs="118.99" fuel_abs="89736.57" electricity_abs="0.00"/>
    </tripinfo>
    <tripinfo id="110" depart="82.00" departLane="28718647#1_0" departPos="4.60" departSpeed="21.27" departDelay="0.37" arrival="124.00" arrivalLane="305873958#3-AddedOnRampEdge_2" arrivalPos="99.87" arrivalSpeed="20.87" duration="42.00" routeLength="775.85" waitingTime="0.00" waitingCount="0" stopTime="0.00" timeLoss="5.06" rerouteNo="0" devices="tripinfo_110 emissions_110 ssm_110 fcd_110" vType="car" speedFactor="0.96" vaporized="">
        <emissions CO_abs="1445.92" CO2_abs="166177.58" HC_abs="10.33" PMx_abs="2.84" NOx_abs="62.11" fuel_abs="53002.71" electricity_abs="0.00"/>
    </tripinfo>
    <tripinfo id="1413" depart="45.00" departLane="50211834#0_0" departPos="4.60" departSpeed="27.09" departDelay="0.01" arrival="125.00" arrivalLane="10873193#2_0" arrivalPos="224.37" arrivalSpeed="20.71" duration="80.00" routeLength="822.92" waitingTime="30.00" waitingCount="1" stopTime="0.00" timeLoss="43.58" rerouteNo="0" devices="tripinfo_1413 emissions_1413 ssm_1413 fcd_1413" vType="car" speedFactor="0.97" vaporized="">
        <emissions CO_abs="8023.40" CO2_abs="296555.02" HC_abs="43.56" PMx_abs="6.30" NOx_abs="124.37" fuel_abs="94588.68" electricity_abs="0.00"/>
    </tripinfo>
    <tripinfo id="904" depart="93.00" departLane="29181613#1_0" departPos="4.60" departSpeed="28.99" departDelay="0.49" arrival="126.00" arrivalLane="192591565#2_0" arrivalPos="258.68" arrivalSpeed="28.45" duration="33.00" routeLength="523.59" waitingTime="2.00" waitingCount="1" stopTime="0.00" timeLoss="12.94" rerouteNo="0" devices="tripinfo_904 emissions_904 ssm_904 fcd_904" vType="car" speedFactor="1.04" vaporized="">
        <emissions CO_abs="3630.91" CO2_abs="201742.07" HC_abs="21.50" PMx_abs="4.50" NOx_abs="84.56" fuel_abs="64346.04" electricity_abs="0.00"/>
    </tripinfo>
    <tripinfo id="912" depart="96.00" departLane="29181613#1_0" departPos="4.60" departSpeed="27.71" departDelay="0.10" arrival="127.00" arrivalLane="192591565#2_0" arrivalPos="258.68" arrivalSpeed="26.48" duration="31.00" routeLength="523.59" waitingTime="0.00" waitingCount="0" stopTime="0.00" timeLoss="10.81" rerouteNo="0" devices="tripinfo_912 emissions_912 ssm_912 fcd_912" vType="car" speedFactor="1.00" vaporized="">
        <emissions CO_abs="3097.68" CO2_abs="186643.89" HC_abs="18.64" PMx_abs="4.09" NOx_abs="77.81" fuel_abs="59530.34" electricity_abs="0.00"/>
    </tripinfo>
    <tripinfo id="1734" depart="11.00" departLane="50211834#0_0" departPos="4.60" departSpeed="28.07" departDelay="0.84" arrival="136.00" arrivalLane="10873191#5_1" arrivalPos="21.02" arrivalSpeed="15.17" duration="125.00" routeLength="640.81" waitingTime="73.00" waitingCount="2" stopTime="0.00" timeLoss="99.84" rerouteNo="0" devices="tripinfo_1734 emissions_1734 ssm_1734 fcd_1734" vType="car" speedFactor="1.01" vaporized="">
        <emissions CO_abs="16343.86" CO2_abs="427270.17" HC_abs="84.60" PMx_abs="9.71" NOx_abs="186.62" fuel_abs="136283.47" electricity_abs="0.00"/>
    </tripinfo>
    <tripinfo id="1772" depart="26.00" departLane="50211834#0_2" departPos="4.60" departSpeed="26.76" departDelay="0.14" arrival="136.00" arrivalLane="10873191#5_2" arrivalPos="21.02" arrivalSpeed="12.61" duration="110.00" routeLength="643.62" waitingTime="62.00" waitingCount="1" stopTime="0.00" timeLoss="84.09" rerouteNo="0" devices="tripinfo_1772 emissions_1772 ssm_1772 fcd_1772" vType="taxi" speedFactor="0.96" vaporized="">
        <emissions CO_abs="13671.81" CO2_abs="377291.51" HC_abs="71.09" PMx_abs="8.38" NOx_abs="162.69" fuel_abs="120341.89" electricity_abs="0.00"/>
    </tripinfo>
    <tripinfo id="1869" depart="57.00" departLane="50211834#0_0" departPos="7.10" departSpeed="32.74" departDelay="0.73" arrival="137.00" arrivalLane="10873191#5_3" arrivalPos="21.02" arrivalSpeed="11.75" duration="80.00" routeLength="638.31" waitingTime="21.00" waitingCount="2" stopTime="0.00" timeLoss="58.79" rerouteNo="0" devices="tripinfo_1869 emissions_1869 ssm_1869 fcd_1869" vType="microbus" speedFactor="1.18" vaporized="">
        <emissions CO_abs="68.23" CO2_abs="171804.61" HC_abs="13.98" PMx_abs="45.66" NOx_abs="1697.94" fuel_abs="54046.60" electricity_abs="0.00"/>
    </tripinfo>
    <tripinfo id="1749" depart="35.00" departLane="50211834#0_0" departPos="9.10" departSpeed="26.89" departDelay="0.00" arrival="139.00" arrivalLane="10873191#5_2" arrivalPos="21.02" arrivalSpeed="13.01" duration="104.00" routeLength="639.12" waitingTime="39.00" waitingCount="2" stopTime="0.00" timeLoss="77.98" rerouteNo="0" devices="tripinfo_1749 emissions_1749 ssm_1749 fcd_1749" vType="truck" speedFactor="0.97" vaporized="">
        <emissions CO_abs="2786.40" CO2_abs="1521590.57" HC_abs="821.20" PMx_abs="597.87" NOx_abs="21002.99" fuel_abs="478767.29" electricity_abs="0.00"/>
    </tripinfo>
    <tripinfo id="1443" depart="52.00" departLane="50211834#0_1" departPos="4.60" departSpeed="25.48" departDelay="0.67" arrival="139.00" arrivalLane="10873193#2_0" arrivalPos="224.37" arrivalSpeed="19.63" duration="87.00" routeLength="825.73" waitingTime="24.00" waitingCount="2" stopTime="0.00" timeLoss="48.77" rerouteNo="0" devices="tripinfo_1443 emissions_1443 ssm_1443 fcd_1443" vType="car" speedFactor="0.92" vaporized="">
        <emissions CO_abs="8460.54" CO2_abs="313393.43" HC_abs="45.94" PMx_abs="6.49" NOx_abs="131.16" fuel_abs="99959.54" electricity_abs="0.00"/>
    </tripinfo>
    <tripinfo id="1826" depart="71.00" departLane="50211834#0_2" departPos="4.60" departSpeed="27.41" departDelay="0.31" arrival="141.00" arrivalLane="10873191#5_2" arrivalPos="21.02" arrivalSpeed="15.78" duration="70.00" routeLength="643.62" waitingTime="10.00" waitingCount="1" stopTime="0.00" timeLoss="44.51" rerouteNo="0" devices="tripinfo_1826 emissions_1826 ssm_1826 fcd_1826" vType="taxi" speedFactor="0.99" vaporized="">
        <emissions CO_abs="5649.05" CO2_abs="235769.43" HC_abs="31.26" PMx_abs="4.72" NOx_abs="99.09" fuel_abs="75200.33" electricity_abs="0.00"/>
    </tripinfo>
    <tripinfo id="1868" depart="66.00" departLane="50211834#0_2" departPos="4.60" departSpeed="27.71" departDelay="0.77" arrival="142.00" arrivalLane="10873191#5_2" arrivalPos="21.02" arrivalSpeed="14.32" duration="76.00" routeLength="643.62" waitingTime="11.00" waitingCount="1" stopTime="0.00" timeLoss="50.37" rerouteNo="0" devices="tripinfo_1868 emissions_1868 ssm_1868 fcd_1868" vType="taxi" speedFactor="1.00" vaporized="">
        <emissions CO_abs="5602.30" CO2_abs="206256.58" HC_abs="30.37" PMx_abs="4.13" NOx_abs="87.92" fuel_abs="65787.33" electricity_abs="0.00"/>
    </tripinfo>
    <tripinfo id="1757" depart="106.00" departLane="50211834#0_2" departPos="2.30" departSpeed="28.25" departDelay="0.76" arrival="144.00" arrivalLane="10873191#5_2" arrivalPos="21.02" arrivalSpeed="16.68" duration="38.00" routeLength="645.92" waitingTime="0.00" waitingCount="0" stopTime="0.00" timeLoss="12.64" rerouteNo="0" devices="tripinfo_1757 emissions_1757 ssm_1757 fcd_1757" vType="motorcycle" speedFactor="1.02" vaporized="">
        <emissions CO_abs="3057.82" CO2_abs="214867.03" HC_abs="19.17" PMx_abs="4.60" NOx_abs="90.81" fuel_abs="68531.82" electricity_abs="0.00"/>
    </tripinfo>
    <tripinfo id="1674" depart="54.00" departLane="50211834#0_2" departPos="9.10" departSpeed="27.07" departDelay="0.06" arrival="148.00" arrivalLane="10873193#2_0" arrivalPos="224.37" arrivalSpeed="21.51" duration="94.00" routeLength="821.23" waitingTime="21.00" waitingCount="1" stopTime="0.00" timeLoss="57.44" rerouteNo="0" devices="tripinfo_1674 emissions_1674 ssm_1674 fcd_1674" vType="truck" speedFactor="0.97" vaporized="">
        <emissions CO_abs="3268.45" CO2_abs="1750449.89" HC_abs="792.88" PMx_abs="664.38" NOx_abs="24446.73" fuel_abs="550767.98" electricity_abs="0.00"/>
    </tripinfo>
    <tripinfo id="1141" depart="24.00" departLane="690516091#0_0" departPos="4.60" departSpeed="31.19" departDelay="0.11" arrival="153.00" arrivalLane="10873191#5_2" arrivalPos="21.02" arrivalSpeed="30.77" duration="129.00" routeLength="714.93" waitingTime="79.00" waitingCount="2" stopTime="0.00" timeLoss="104.60" rerouteNo="0" devices="tripinfo_1141 emissions_1141 ssm_1141 fcd_1141" vType="car" speedFactor="1.12" vaporized="">
        <emissions CO_abs="18994.33" CO2_abs="501406.08" HC_abs="98.59" PMx_abs="11.84" NOx_abs="219.08" fuel_abs="159929.69" electricity_abs="0.00"/>
    </tripinfo>
    <tripinfo id="826" depart="89.00" departLane="29181613#1_0" departPos="4.60" departSpeed="30.33" departDelay="0.12" arrival="153.00" arrivalLane="305873958#3-AddedOnRampEdge_0" arrivalPos="99.87" arrivalSpeed="23.69" duration="64.00" routeLength="478.31" waitingTime="28.00" waitingCount="2" stopTime="0.00" timeLoss="45.29" rerouteNo="0" devices="tripinfo_826 emissions_826 ssm_826 fcd_826" vType="car" speedFactor="1.09" vaporized="">
        <emissions CO_abs="7721.39" CO2_abs="232711.77" HC_abs="40.72" PMx_abs="5.22" NOx_abs="99.98" fuel_abs="74225.89" electricity_abs="0.00"/>
    </tripinfo>
    <tripinfo id="1692" depart="102.00" departLane="50211834#0_0" departPos="4.60" departSpeed="23.62" departDelay="0.13" arrival="159.00" arrivalLane="10873193#2_1" arrivalPos="224.37" arrivalSpeed="18.20" duration="57.00" routeLength="825.73" waitingTime="2.00" waitingCount="1" stopTime="0.00" timeLoss="14.92" rerouteNo="0" devices="tripinfo_1692 emissions_1692 ssm_1692 fcd_1692" vType="car" speedFactor="0.85" vaporized="">
        <emissions CO_abs="3433.21" CO2_abs="229061.11" HC_abs="20.75" PMx_abs="4.28" NOx_abs="91.15" fuel_abs="73059.81" electricity_abs="0.00"/>
    </tripinfo>
    <tripinfo id="1427" depart="60.00" departLane="50211834#0_2" departPos="1.90" departSpeed="15.00" departDelay="0.15" arrival="160.00" arrivalLane="10873193#2_0" arrivalPos="224.37" arrivalSpeed="14.86" duration="100.00" routeLength="828.43" waitingTime="13.00" waitingCount="2" stopTime="0.00" timeLoss="43.13" rerouteNo="0" devices="tripinfo_1427 emissions_1427 ssm_1427 fcd_1427" vType="bicycle" speedFactor="1.01" vaporized="">
        <emissions CO_abs="0.00" CO2_abs="0.00" HC_abs="0.00" PMx_abs="0.00" NOx_abs="0.00" fuel_abs="0.00" electricity_abs="0.00"/>
    </tripinfo>
    <tripinfo id="1151" depart="64.00" departLane="690516091#0_0" departPos="4.60" departSpeed="32.55" departDelay="0.82" arrival="160.00" arrivalLane="10873191#5_2" arrivalPos="21.02" arrivalSpeed="27.90" duration="96.00" routeLength="714.93" waitingTime="44.00" waitingCount="1" stopTime="0.00" timeLoss="73.00" rerouteNo="0" devices="tripinfo_1151 emissions_1151 ssm_1151 fcd_1151" vType="car" speedFactor="1.17" vaporized="">
        <emissions CO_abs="13088.62" CO2_abs="393646.88" HC_abs="69.16" PMx_abs="9.16" NOx_abs="169.04" fuel_abs="125557.71" electricity_abs="0.00"/>
    </tripinfo>
    <tripinfo id="708" depart="77.00" departLane="29181613#1_0" departPos="7.10" departSpeed="25.02" departDelay="0.95" arrival="160.00" arrivalLane="305873958#3-AddedOnRampEdge_0" arrivalPos="99.87" arrivalSpeed="19.51" duration="83.00" routeLength="475.81" waitingTime="45.00" waitingCount="2" stopTime="0.00" timeLoss="59.73" rerouteNo="0" devices="tripinfo_708 emissions_708 ssm_708 fcd_708" vType="microbus" speedFactor="0.90" vaporized="">
        <emissions CO_abs="82.76" CO2_abs="153979.85" HC_abs="13.07" PMx_abs="45.38" NOx_abs="1659.04" fuel_abs="48439.76" electricity_abs="0.00"/>
    </tripinfo>
    <tripinfo id="1554" depart="67.00" departLane="50211834#0_0" departPos="9.10" departSpeed="28.05" departDelay="0.27" arrival="161.00" arrivalLane="10873193#2_0" arrivalPos="224.37" arrivalSpeed="15.06" duration="94.00" routeLength="818.42" waitingTime="10.00" waitingCount="2" stopTime="0.00" timeLoss="59.11" rerouteNo="0" devices="tripinfo_1554 emissions_1554 ssm_1554 fcd_1554" vType="truck" speedFactor="1.01" vaporized="">
        <emissions CO_abs="2705.61" CO2_abs="1435869.62" HC_abs="683.45" PMx_abs="553.43" NOx_abs="20005.43" fuel_abs="451787.86" electricity_abs="0.00"/>
    </tripinfo>
    <tripinfo id="1630" depart="104.00" departLane="50211834#0_1" departPos="4.60" departSpeed="23.75" departDelay="0.17" arrival="163.00" arrivalLane="10873193#2_0" arrivalPos="224.37" arrivalSpeed="18.33" duration="59.00" routeLength="825.73" waitingTime="2.00" waitingCount="1" stopTime="0.00" timeLoss="16.65" rerouteNo="0" devices="tripinfo_1630 emissions_1630 ssm_1630 fcd_1630" vType="car" speedFactor="0.85" vaporized="">
        <emissions CO_abs="3447.50" CO2_abs="227974.48" HC_abs="20.89" PMx_abs="4.38" NOx_abs="92.04" fuel_abs="72713.13" electricity_abs="0.00"/>
    </tripinfo>
    <tripinfo id="692" depart="109.00" departLane="29181613#1_1" departPos="4.60" departSpeed="27.67" departDelay="0.75" arrival="163.00" arrivalLane="305873958#3-AddedOnRampEdge_0" arrivalPos="99.87" arrivalSpeed="21.40" duration="54.00" routeLength="478.31" waitingTime="15.00" waitingCount="1" stopTime="0.00" timeLoss="33.49" rerouteNo="0" devices="tripinfo_692 emissions_692 ssm_692 fcd_692" vType="car" speedFactor="1.00" vaporized="">
        <emissions CO_abs="5306.11" CO2_abs="186227.72" HC_abs="28.51" PMx_abs="4.03" NOx_abs="79.45" fuel_abs="59398.89" electricity_abs="0.00"/>
    </tripinfo>
    <tripinfo id="1048" depart="60.00" departLane="690516091#0_0" departPos="4.60" departSpeed="29.92" departDelay="0.93" arrival="164.00" arrivalLane="10873191#5_2" arrivalPos="21.02" arrivalSpeed="27.87" duration="104.00" routeLength="714.93" waitingTime="53.00" waitingCount="2" stopTime="0.00" timeLoss="78.76" rerouteNo="0" devices="tripinfo_1048 emissions_1048 ssm_1048 fcd_1048" vType="taxi" speedFactor="1.08" vaporized="">
        <emissions CO_abs="14203.57" CO2_abs="412573.33" HC_abs="74.59" PMx_abs="9.52" NOx_abs="178.56" fuel_abs="131594.75" electricity_abs="0.00"/>
    </tripinfo>
    <tripinfo id="1381" depart="101.00" departLane="690516091#0_0" departPos="4.60" departSpeed="26.40" departDelay="0.73" arrival="165.00" arrivalLane="305873958#3-AddedOnRampEdge_3" arrivalPos="99.87" arrivalSpeed="20.78" duration="64.00" routeLength="654.78" waitingTime="15.00" waitingCount="1" stopTime="0.00" timeLoss="34.30" rerouteNo="0" devices="tripinfo_1381 emissions_1381 ssm_1381 fcd_1381" vType="taxi" speedFactor="0.95" vaporized="">
        <emissions CO_abs="6093.07" CO2_abs="251606.89" HC_abs="33.78" PMx_abs="5.31" NOx_abs="104.90" fuel_abs="80251.72" electricity_abs="0.00"/>
    </tripinfo>
    <tripinfo id="870" depart="109.00" departLane="29181613#1_2" departPos="4.60" departSpeed="19.03" departDelay="0.14" arrival="165.00" arrivalLane="305873958#3-AddedOnRampEdge_0" arrivalPos="99.87" arrivalSpeed="25.12" duration="56.00" routeLength="478.31" waitingTime="15.00" waitingCount="1" stopTime="0.00" timeLoss="37.84" rerouteNo="0" devices="tripinfo_870 emissions_870 ssm_870 fcd_870" vType="car" speedFactor="1.14" vaporized="">
        <emissions CO_abs="6344.06" CO2_abs="253505.63" HC_abs="34.94" PMx_abs="5.44" NOx_abs="107.92" fuel_abs="80857.25" electricity_abs="0.00"/>
    </tripinfo>
    <tripinfo id="5" depart="56.00" departLane="28718647#1_0" departPos="7.10" departSpeed="20.69" departDelay="0.35" arrival="167.00" arrivalLane="10873191#5_2" arrivalPos="21.02" arrivalSpeed="24.48" duration="111.00" routeLength="815.38" waitingTime="25.00" waitingCount="2" stopTime="0.00" timeLoss="71.70" rerouteNo="0" devices="tripinfo_5 emissions_5 ssm_5 fcd_5" vType="microbus" speedFactor="0.93" vaporized="">
        <emissions CO_abs="90.67" CO2_abs="221812.01" HC_abs="18.69" PMx_abs="58.08" NOx_abs="2124.55" fuel_abs="69778.17" electricity_abs="0.00"/>
    </tripinfo>
    <tripinfo id="1003" depart="90.00" departLane="690516091#0_0" departPos="4.60" departSpeed="28.83" departDelay="0.86" arrival="168.00" arrivalLane="10873191#5_2" arrivalPos="21.02" arrivalSpeed="25.88" duration="78.00" routeLength="714.93" waitingTime="26.00" waitingCount="1" stopTime="0.00" timeLoss="51.99" rerouteNo="0" devices="tripinfo_1003 emissions_1003 ssm_1003 fcd_1003" vType="car" speedFactor="1.04" vaporized="">
        <emissions CO_abs="8338.01" CO2_abs="306556.66" HC_abs="45.31" PMx_abs="6.71" NOx_abs="128.92" fuel_abs="97778.68" electricity_abs="0.00"/>
    </tripinfo>
    <tripinfo id="881" depart="111.00" departLane="29181613#1_3" departPos="4.60" departSpeed="19.69" departDelay="0.91" arrival="169.00" arrivalLane="192591565#2_0" arrivalPos="258.68" arrivalSpeed="28.41" duration="58.00" routeLength="523.59" waitingTime="14.00" waitingCount="1" stopTime="0.00" timeLoss="37.62" rerouteNo="0" devices="tripinfo_881 emissions_881 ssm_881 fcd_881" vType="car" speedFactor="1.02" vaporized="">
        <emissions CO_abs="7018.82" CO2_abs="276052.02" HC_abs="38.64" PMx_abs="6.17" NOx_abs="118.40" fuel_abs="88048.42" electricity_abs="0.00"/>
    </tripinfo>
    <tripinfo id="9" depart="19.00" departLane="28718647#1_0" departPos="4.60" departSpeed="19.69" departDelay="0.61" arrival="172.00" arrivalLane="10873191#5_2" arrivalPos="21.02" arrivalSpeed="23.52" duration="153.00" routeLength="817.88" waitingTime="78.00" waitingCount="5" stopTime="0.00" timeLoss="112.67" rerouteNo="0" devices="tripinfo_9 emissions_9 ssm_9 fcd_9" vType="car" speedFactor="0.89" vaporized="">
        <emissions CO_abs="18829.86" CO2_abs="499190.84" HC_abs="97.17" PMx_abs="10.93" NOx_abs="215.35" fuel_abs="159223.71" electricity_abs="0.00"/>
    </tripinfo>