<?xml version="1.0" encoding="UTF-8"?>

<!-- generated on 2026-02-28T03:05:31.527888+02:00 by Eclipse SUMO GUI 1.26.0
<sumoConfiguration xmlns:xsi="http://www.w3.org/2001/XMLSchema-instance" xsi:noNamespaceSchemaLocation="http://sumo.dlr.de/xsd/sumoConfiguration.xsd">

    <input>
        <net-file value="simulation/maps/tahrirupdated.net.xml"/>
        <route-files value="simulation/maps/od_route_tahrir.odtrips.rou.xml"/>
        <additional-files value="simulation/maps/tahrir.add.xml"/>
    </input>

    <output>
        <netstate-dump value="simulation/maps/outputs/netstate.xml"/>
        <emission-output value="simulation/maps/outputs/emission.xml.gz"/>
        <fcd-output value="simulation/maps/outputs/fcd.xml"/>
        <full-output value="simulation/maps/outputs/full.xml.gz"/>
        <summary-output value="simulation/maps/outputs/summary.xml"/>
        <tripinfo-output value="simulation/maps/outputs/tripinfo.xml"/>
        <lanechange-output value="simulation/maps/outputs/lanechange.xml"/>
    </output>

    <time>
        <begin value="0"/>
        <end value="3600"/>
    </time>

    <report>
        <verbose value="true"/>
        <no-step-log value="true"/>
    </report>

    <ssm_device>
        <device.ssm.probability value="1.0"/>
        <device.ssm.measures value="TTC DRAC PET"/>
        <device.ssm.thresholds value="3.0 3.0 2.0"/>
        <device.ssm.trajectories value="true"/>
        <device.ssm.range value="50.0"/>
        <device.ssm.extratime value="5.0"/>
        <device.ssm.file value="outputs/ssm.xml.gz"/>
    </ssm_device>

    <traci_server>
        <remote-port value="64327"/>
    </traci_server>

    <gui_only>
        <gui-settings-file value="simulation/maps/gui_settings.xml"/>
        <quit-on-end value="false"/>
        <delay value="10"/>
        <window-size value="1920,1080"/>
    </gui_only>

</sumoConfiguration>
-->

<tripinfos xmlns:xsi="http://www.w3.org/2001/XMLSchema-instance" xsi:noNamespaceSchemaLocation="http://sumo.dlr.de/xsd/tripinfo_file.xsd">
    <tripinfo id="746" depart="19.00" departLane="29181613#1_0" departPos="4.60" departSpeed="26.05" departDelay="0.03" arrival="44.00" arrivalLane="192591565#2_0" arrivalPos="258.68" arrivalSpeed="25.87" duration="25.00" routeLength="523.59" waitingTime="0.00" waitingCount="0" stopTime="0.00" timeLoss="3.17" rerouteNo="0" devices="tripinfo_746 emissions_746 ssm_746 fcd_746" vType="car" speedFactor="0.94" vaporized="">
        <emissions CO_abs="2010.52" CO2_abs="149072.52" HC_abs="12.79" PMx_abs="3.19" NOx_abs="60.61" fuel_abs="47546.76" electricity_abs="0.00"/>
    </tripinfo>
    <tripinfo id="244" depart="12.00" departLane="28718647#1_0" departPos="4.60" departSpeed="24.06" departDelay="0.88" arrival="51.00" arrivalLane="305873958#3-AddedOnRampEdge_2" arrivalPos="99.87" arrivalSpeed="23.58" duration="39.00" routeLength="775.85" waitingTime="0.00" waitingCount="0" stopTime="0.00" timeLoss="6.51" rerouteNo="0" devices="tripinfo_244 emissions_244 ssm_244 fcd_244" vType="car" speedFactor="1.08" vaporized="">
        <emissions CO_abs="2517.11" CO2_abs="196899.61" HC_abs="16.10" PMx_abs="3.98" NOx_abs="78.49" fuel_abs="62801.38" electricity_abs="0.00"/>
    </tripinfo>
    <tripinfo id="87" depart="17.00" departLane="28718647#1_0" departPos="9.10" departSpeed="22.73" departDelay="0.28" arrival="60.00" arrivalLane="305873958#3-AddedOnRampEdge_2" arrivalPos="99.87" arrivalSpeed="16.58" duration="43.00" routeLength="771.35" waitingTime="0.00" waitingCount="0" stopTime="0.00" timeLoss="8.99" rerouteNo="0" devices="tripinfo_87 emissions_87 ssm_87 fcd_87" vType="truck" speedFactor="1.02" vaporized="">
        <emissions CO_abs="1837.72" CO2_abs="891766.65" HC_abs="376.81" PMx_abs="348.39" NOx_abs="12564.80" fuel_abs="280580.49" electricity_abs="0.00"/>
    </tripinfo>
    <tripinfo id="1394" depart="23.00" departLane="690516091#0_0" departPos="4.60" departSpeed="28.51" departDelay="0.18" arrival="65.00" arrivalLane="305873958#3-AddedOnRampEdge_3" arrivalPos="99.87" arrivalSpeed="21.89" duration="42.00" routeLength="654.78" waitingTime="3.00" waitingCount="1" stopTime="0.00" timeLoss="15.73" rerouteNo="0" devices="tripinfo_1394 emissions_1394 ssm_1394 fcd_1394" vType="car" speedFactor="1.03" vaporized="">
        <emissions CO_abs="3727.49" CO2_abs="204226.52" HC_abs="21.89" PMx_abs="4.37" NOx_abs="84.95" fuel_abs="65138.64" electricity_abs="0.00"/>
    </tripinfo>
    <tripinfo id="1384" depart="33.00" departLane="690516091#0_0" departPos="4.60" departSpeed="26.97" departDelay="0.86" arrival="72.00" arrivalLane="305873958#3-AddedOnRampEdge_3" arrivalPos="99.87" arrivalSpeed="21.42" duration="39.00" routeLength="654.78" waitingTime="0.00" waitingCount="0" stopTime="0.00" timeLoss="10.33" rerouteNo="0" devices="tripinfo_1384 emissions_1384 ssm_1384 fcd_1384" vType="taxi" speedFactor="0.97" vaporized="">
        <emissions CO_abs="2617.41" CO2_abs="188955.78" HC_abs="16.41" PMx_abs="3.82" NOx_abs="76.30" fuel_abs="60267.78" electricity_abs="0.00"/>
    </tripinfo>
    <tripinfo id="1286" depart="37.00" departLane="690516091#0_0" departPos="4.60" departSpeed="32.17" departDelay="0.65" arrival="73.00" arrivalLane="305873958#3-AddedOnRampEdge_3" arrivalPos="99.87" arrivalSpeed="23.76" duration="36.00" routeLength="654.78" waitingTime="0.00" waitingCount="0" stopTime="0.00" timeLoss="12.29" rerouteNo="0" devices="tripinfo_1286 emissions_1286 ssm_1286 fcd_1286" vType="car" speedFactor="1.16" vaporized="">
        <emissions CO_abs="2832.43" CO2_abs="181945.44" HC_abs="17.38" PMx_abs="3.94" NOx_abs="74.86" fuel_abs="58031.76" electricity_abs="0.00"/>
    </tripinfo>
    <tripinfo id="769" depart="48.00" departLane="29181613#1_1" departPos="4.60" departSpeed="22.94" departDelay="0.05" arrival="76.00" arrivalLane="305873958#3-AddedOnRampEdge_0" arrivalPos="99.87" arrivalSpeed="18.27" duration="28.00" routeLength="478.31" waitingTime="0.00" waitingCount="0" stopTime="0.00" timeLoss="2.88" rerouteNo="0" devices="tripinfo_769 emissions_769 ssm_769 fcd_769" vType="car" speedFactor="0.83" vaporized="">
        <emissions CO_abs="1012.93" CO2_abs="108529.86" HC_abs="6.96" PMx_abs="1.86" NOx_abs="41.23" fuel_abs="34615.83" electricity_abs="0.00"/>
    </tripinfo>
    <tripinfo id="1596" depart="22.00" departLane="50211834#0_0" departPos="4.60" departSpeed="30.30" departDelay="0.24" arrival="79.00" arrivalLane="10873193#2_0" arrivalPos="224.37" arrivalSpeed="23.99" duration="57.00" routeLength="822.92" waitingTime="9.00" waitingCount="1" stopTime="0.00" timeLoss="24.06" rerouteNo="0" devices="tripinfo_1596 emissions_1596 ssm_1596 fcd_1596" vType="car" speedFactor="1.09" vaporized="">
        <emissions CO_abs="5338.27" CO2_abs="273821.77" HC_abs="30.93" PMx_abs="5.89" NOx_abs="113.84" fuel_abs="87336.46" electricity_abs="0.00"/>
    </tripinfo>
    <tripinfo id="282" depart="3.00" departLane="28718647#1_0" departPos="4.60" departSpeed="22.89" departDelay="0.17" arrival="84.00" arrivalLane="192591565#2_0" arrivalPos="258.68" arrivalSpeed="27.48" duration="81.00" routeLength="1007.14" waitingTime="20.00" waitingCount="1" stopTime="0.00" timeLoss="39.03" rerouteNo="0" devices="tripinfo_282 emissions_282 ssm_282 fcd_282" vType="taxi" speedFactor="1.03" vaporized="">
        <emissions CO_abs="7631.30" CO2_abs="353823.36" HC_abs="43.17" PMx_abs="7.42" NOx_abs="146.24" fuel_abs="112853.87" electricity_abs="0.00"/>
    </tripinfo>
    <tripinfo id="1425" depart="25.00" departLane="50211834#0_1" departPos="7.10" departSpeed="27.54" departDelay="0.56" arrival="86.00" arrivalLane="10873193#2_0" arrivalPos="224.37" arrivalSpeed="21.13" duration="61.00" routeLength="823.23" waitingTime="4.00" waitingCount="1" stopTime="0.00" timeLoss="24.56" rerouteNo="0" devices="tripinfo_1425 emissions_1425 ssm_1425 fcd_1425" vType="microbus" speedFactor="0.99" vaporized="">
        <emissions CO_abs="41.25" CO2_abs="165831.28" HC_abs="14.05" PMx_abs="37.85" NOx_abs="1376.06" fuel_abs="52166.95" electricity_abs="0.00"/>
    </tripinfo>
    <tripinfo id="525" depart="38.00" departLane="29181613#1_0" departPos="7.10" departSpeed="28.28" departDelay="0.30" arrival="88.00" arrivalLane="10873193#2_0" arrivalPos="224.37" arrivalSpeed="21.98" duration="50.00" routeLength="789.06" waitingTime="0.00" waitingCount="0" stopTime="0.00" timeLoss="15.86" rerouteNo="0" devices="tripinfo_525 emissions_525 ssm_525 fcd_525" vType="microbus" speedFactor="1.02" vaporized="">
        <emissions CO_abs="28.87" CO2_abs="144805.88" HC_abs="12.19" PMx_abs="31.51" NOx_abs="1150.83" fuel_abs="45552.67" electricity_abs="0.00"/>
    </tripinfo>
    <tripinfo id="1348" depart="17.00" departLane="690516091#0_0" departPos="4.60" departSpeed="25.43" departDelay="0.92" arrival="89.00" arrivalLane="192591565#2_0" arrivalPos="258.68" arrivalSpeed="24.23" duration="72.00" routeLength="904.19" waitingTime="8.00" waitingCount="1" stopTime="0.00" timeLoss="34.77" rerouteNo="0" devices="tripinfo_1348 emissions_1348 ssm_1348 fcd_1348" vType="taxi" speedFactor="0.92" vaporized="">
        <emissions CO_abs="6461.96" CO2_abs="320125.76" HC_abs="37.06" PMx_abs="6.64" NOx_abs="132.37" fuel_abs="102105.62" electricity_abs="0.00"/>
    </tripinfo>
    <tripinfo id="518" depart="5.00" departLane="29181613#1_0" departPos="4.60" departSpeed="26.07" departDelay="0.23" arrival="90.00" arrivalLane="10873193#2_0" arrivalPos="224.37" arrivalSpeed="20.29" duration="85.00" routeLength="791.56" waitingTime="26.00" waitingCount="1" stopTime="0.00" timeLoss="48.44" rerouteNo="0" devices="tripinfo_518 emissions_518 ssm_518 fcd_518" vType="car" speedFactor="0.94" vaporized="">
        <emissions CO_abs="8199.33" CO2_abs="304318.57" HC_abs="44.28" PMx_abs="6.22" NOx_abs="125.68" fuel_abs="97065.11" electricity_abs="0.00"/>
    </tripinfo>
    <tripinfo id="1324" depart="56.00" departLane="690516091#0_0" departPos="4.60" departSpeed="29.61" departDelay="0.61" arrival="91.00" arrivalLane="305873958#3-AddedOnRampEdge_3" arrivalPos="99.87" arrivalSpeed="22.52" duration="35.00" routeLength="654.78" waitingTime="0.00" waitingCount="0" stopTime="0.00" timeLoss="9.51" rerouteNo="0" devices="tripinfo_1324 emissions_1324 ssm_1324 fcd_1324" vType="taxi" speedFactor="1.07" vaporized="">
        <emissions CO_abs="2799.20" CO2_abs="194984.23" HC_abs="17.54" PMx_abs="4.14" NOx_abs="79.49" fuel_abs="62190.46" electricity_abs="0.00"/>
    </tripinfo>
    <tripinfo id="1578" depart="15.00" departLane="50211834#0_0" departPos="7.10" departSpeed="28.62" departDelay="0.93" arrival="92.00" arrivalLane="10873193#2_0" arrivalPos="224.37" arrivalSpeed="22.61" duration="77.00" routeLength="823.23" waitingTime="24.00" waitingCount="3" stopTime="0.00" timeLoss="42.22" rerouteNo="0" devices="tripinfo_1578 emissions_1578 ssm_1578 fcd_1578" vType="microbus" speedFactor="1.03" vaporized="">
        <emissions CO_abs="63.09" CO2_abs="189429.21" HC_abs="15.61" PMx_abs="48.51" NOx_abs="1794.51" fuel_abs="59590.62" electricity_abs="0.00"/>
    </tripinfo>
    <tripinfo id="594" depart="71.00" departLane="29181613#1_0" departPos="9.10" departSpeed="30.27" departDelay="0.28" arrival="97.00" arrivalLane="192591565#2_0" arrivalPos="258.68" arrivalSpeed="24.47" duration="26.00" routeLength="519.09" waitingTime="0.00" waitingCount="0" stopTime="0.00" timeLoss="7.37" rerouteNo="0" devices="tripinfo_594 emissions_594 ssm_594 fcd_594" vType="truck" speedFactor="1.09" vaporized="">
        <emissions CO_abs="1422.58" CO2_abs="726822.15" HC_abs="238.32" PMx_abs="264.27" NOx_abs="10331.47" fuel_abs="228683.05" electricity_abs="0.00"/>
    </tripinfo>
    <tripinfo id="1241" depart="50.00" departLane="690516091#0_0" departPos="4.60" departSpeed="24.24" departDelay="0.95" arrival="98.00" arrivalLane="192591565#2_0" arrivalPos="258.68" arrivalSpeed="23.83" duration="48.00" routeLength="904.19" waitingTime="0.00" waitingCount="0" stopTime="0.00" timeLoss="9.13" rerouteNo="0" devices="tripinfo_1241 emissions_1241 ssm_1241 fcd_1241" vType="car" speedFactor="0.87" vaporized="">
        <emissions CO_abs="2941.36" CO2_abs="240797.51" HC_abs="18.96" PMx_abs="4.73" NOx_abs="96.16" fuel_abs="76802.63" electricity_abs="0.00"/>
    </tripinfo>
    <tripinfo id="390" depart="24.00" departLane="29181613#1_0" departPos="4.60" departSpeed="29.09" departDelay="0.95" arrival="105.00" arrivalLane="10873193#2_1" arrivalPos="224.37" arrivalSpeed="22.06" duration="81.00" routeLength="791.56" waitingTime="10.00" waitingCount="3" stopTime="0.00" timeLoss="47.98" rerouteNo="0" devices="tripinfo_390 emissions_390 ssm_390 fcd_390" vType="car" speedFactor="1.05" vaporized="">
        <emissions CO_abs="7870.87" CO2_abs="338277.22" HC_abs="43.93" PMx_abs="7.25" NOx_abs="144.62" fuel_abs="107895.28" electricity_abs="0.00"/>
    </tripinfo>
    <tripinfo id="569" depart="47.00" departLane="29181613#1_0" departPos="2.30" departSpeed="24.71" departDelay="0.10" arrival="106.00" arrivalLane="10873193#2_0" arrivalPos="224.37" arrivalSpeed="18.79" duration="59.00" routeLength="793.86" waitingTime="1.00" waitingCount="1" stopTime="0.00" timeLoss="20.11" rerouteNo="0" devices="tripinfo_569 emissions_569 ssm_569 fcd_569" vType="motorcycle" speedFactor="0.89" vaporized="">
        <emissions CO_abs="3999.51" CO2_abs="237274.02" HC_abs="23.60" PMx_abs="4.74" NOx_abs="97.89" fuel_abs="75679.25" electricity_abs="0.00"/>
    </tripinfo>
    <tripinfo id="411" depart="20.00" departLane="29181613#1_1" departPos="4.60" departSpeed="23.80" departDelay="0.39" arrival="108.00" arrivalLane="10873193#2_1" arrivalPos="224.37" arrivalSpeed="17.74" duration="88.00" routeLength="791.56" waitingTime="15.00" waitingCount="5" stopTime="0.00" timeLoss="47.99" rerouteNo="0" devices="tripinfo_411 emissions_411 ssm_411 fcd_411" vType="car" speedFactor="0.86" vaporized="">
        <emissions CO_abs="8070.84" CO2_abs="333298.13" HC_abs="44.59" PMx_abs="6.82" NOx_abs="140.77" fuel_abs="106307.70" electricity_abs="0.00"/>
    </tripinfo>
    <tripinfo id="110" depart="82.00" departLane="28718647#1_0" departPos="4.60" departSpeed="21.27" departDelay="0.37" arrival="124.00" arrivalLane="305873958#3-AddedOnRampEdge_2" arrivalPos="99.87" arrivalSpeed="20.28" duration="42.00" routeLength="775.85" waitingTime="0.00" waitingCount="0" stopTime="0.00" timeLoss="4.81" rerouteNo="0" devices="tripinfo_110 emissions_110 ssm_110 fcd_110" vType="car" speedFactor="0.96" vaporized="">
        <emissions CO_abs="1713.13" CO2_abs="177190.32" HC_abs="11.70" PMx_abs="3.11" NOx_abs="67.15" fuel_abs="56515.20" electricity_abs="0.00"/>
    </tripinfo>
    <tripinfo id="1413" depart="45.00" departLane="50211834#0_0" departPos="4.60" departSpeed="27.09" departDelay="0.01" arrival="126.00" arrivalLane="10873193#2_0" arrivalPos="224.37" arrivalSpeed="21.30" duration="81.00" routeLength="822.92" waitingTime="29.00" waitingCount="1" stopTime="0.00" timeLoss="44.10" rerouteNo="0" devices="tripinfo_1413 emissions_1413 ssm_1413 fcd_1413" vType="car" speedFactor="0.97" vaporized="">
        <emissions CO_abs="8091.20" CO2_abs="305131.70" HC_abs="44.01" PMx_abs="6.40" NOx_abs="126.71" fuel_abs="97324.29" electricity_abs="0.00"/>
    </tripinfo>
    <tripinfo id="904" depart="93.00" departLane="29181613#1_0" departPos="4.60" departSpeed="28.99" departDelay="0.49" arrival="126.00" arrivalLane="192591565#2_0" arrivalPos="258.68" arrivalSpeed="27.97" duration="33.00" routeLength="523.59" waitingTime="1.00" waitingCount="1" stopTime="0.00" timeLoss="13.00" rerouteNo="0" devices="tripinfo_904 emissions_904 ssm_904 fcd_904" vType="car" speedFactor="1.04" vaporized="">
        <emissions CO_abs="3718.21" CO2_abs="207438.48" HC_abs="22.05" PMx_abs="4.66" NOx_abs="86.70" fuel_abs="66162.90" electricity_abs="0.00"/>
    </tripinfo>
    <tripinfo id="912" depart="96.00" departLane="29181613#1_0" departPos="4.60" departSpeed="27.71" departDelay="0.10" arrival="130.00" arrivalLane="192591565#2_0" arrivalPos="258.68" arrivalSpeed="26.87" duration="34.00" routeLength="523.59" waitingTime="0.00" waitingCount="0" stopTime="0.00" timeLoss="13.05" rerouteNo="0" devices="tripinfo_912 emissions_912 ssm_912 fcd_912" vType="car" speedFactor="1.00" vaporized="">
        <emissions CO_abs="3499.45" CO2_abs="197686.76" HC_abs="20.77" PMx_abs="4.33" NOx_abs="82.49" fuel_abs="63052.62" electricity_abs="0.00"/>
    </tripinfo>
    <tripinfo id="1443" depart="52.00" departLane="50211834#0_1" departPos="4.60" departSpeed="25.48" departDelay="0.67" arrival="133.00" arrivalLane="10873193#2_0" arrivalPos="224.37" arrivalSpeed="19.12" duration="81.00" routeLength="825.73" waitingTime="23.00" waitingCount="1" stopTime="0.00" timeLoss="41.21" rerouteNo="0" devices="tripinfo_1443 emissions_1443 ssm_1443 fcd_1443" vType="car" speedFactor="0.92" vaporized="">
        <emissions CO_abs="7434.20" CO2_abs="290015.66" HC_abs="40.64" PMx_abs="5.90" NOx_abs="119.79" fuel_abs="92502.92" electricity_abs="0.00"/>
    </tripinfo>
    <tripinfo id="60" depart="28.00" departLane="28718647#1_0" departPos="4.60" departSpeed="19.52" departDelay="0.52" arrival="134.00" arrivalLane="192591565#2_0" arrivalPos="258.68" arrivalSpeed="23.44" duration="106.00" routeLength="1007.14" waitingTime="38.00" waitingCount="2" stopTime="0.00" timeLoss="56.42" rerouteNo="0" devices="tripinfo_60 emissions_60 ssm_60 fcd_60" vType="car" speedFactor="0.88" vaporized="">
        <emissions CO_abs="10532.66" CO2_abs="403382.69" HC_abs="57.12" PMx_abs="8.18" NOx_abs="167.03" fuel_abs="128662.32" electricity_abs="0.00"/>
    </tripinfo>
    <tripinfo id="1734" depart="11.00" departLane="50211834#0_0" departPos="4.60" departSpeed="28.07" departDelay="0.84" arrival="136.00" arrivalLane="10873191#5_1" arrivalPos="21.02" arrivalSpeed="14.30" duration="125.00" routeLength="643.62" waitingTime="68.00" waitingCount="2" stopTime="0.00" timeLoss="100.39" rerouteNo="0" devices="tripinfo_1734 emissions_1734 ssm_1734 fcd_1734" vType="car" speedFactor="1.01" vaporized="">
        <emissions CO_abs="16095.87" CO2_abs="423727.05" HC_abs="83.35" PMx_abs="9.59" NOx_abs="184.88" fuel_abs="135153.29" electricity_abs="0.00"/>
    </tripinfo>
    <tripinfo id="9" depart="19.00" departLane="28718647#1_0" departPos="4.60" departSpeed="19.69" departDelay="0.61" arrival="136.00" arrivalLane="10873191#5_0" arrivalPos="21.02" arrivalSpeed="16.21" duration="117.00" routeLength="817.88" waitingTime="52.00" waitingCount="3" stopTime="0.00" timeLoss="75.81" rerouteNo="0" devices="tripinfo_9 emissions_9 ssm_9 fcd_9" vType="car" speedFactor="0.89" vaporized="">
        <emissions CO_abs="12575.14" CO2_abs="383092.17" HC_abs="65.96" PMx_abs="8.10" NOx_abs="162.66" fuel_abs="122191.63" electricity_abs="0.00"/>
    </tripinfo>
    <tripinfo id="1141" depart="24.00" departLane="690516091#0_0" departPos="4.60" departSpeed="31.19" departDelay="0.11" arrival="136.00" arrivalLane="10873191#5_2" arrivalPos="21.02" arrivalSpeed="12.07" duration="112.00" routeLength="714.93" waitingTime="61.00" waitingCount="2" stopTime="0.00" timeLoss="88.43" rerouteNo="0" devices="tripinfo_1141 emissions_1141 ssm_1141 fcd_1141" vType="car" speedFactor="1.12" vaporized="">
        <emissions CO_abs="14294.37" CO2_abs="388357.01" HC_abs="74.42" PMx_abs="8.89" NOx_abs="168.02" fuel_abs="123871.33" electricity_abs="0.00"/>
    </tripinfo>
    <tripinfo id="1772" depart="26.00" departLane="50211834#0_2" departPos="4.60" departSpeed="26.76" departDelay="0.14" arrival="136.00" arrivalLane="10873191#5_3" arrivalPos="21.02" arrivalSpeed="13.94" duration="110.00" routeLength="643.62" waitingTime="50.00" waitingCount="3" stopTime="0.00" timeLoss="83.34" rerouteNo="0" devices="tripinfo_1772 emissions_1772 ssm_1772 fcd_1772" vType="taxi" speedFactor="0.96" vaporized="">
        <emissions CO_abs="12890.03" CO2_abs="366316.79" HC_abs="67.36" PMx_abs="8.09" NOx_abs="159.01" fuel_abs="116841.08" electricity_abs="0.00"/>
    </tripinfo>
    <tripinfo id="1869" depart="57.00" departLane="50211834#0_0" departPos="7.10" departSpeed="32.74" departDelay="0.73" arrival="138.00" arrivalLane="10873191#5_1" arrivalPos="21.02" arrivalSpeed="12.87" duration="81.00" routeLength="638.31" waitingTime="19.00" waitingCount="1" stopTime="0.00" timeLoss="60.01" rerouteNo="0" devices="tripinfo_1869 emissions_1869 ssm_1869 fcd_1869" vType="microbus" speedFactor="1.18" vaporized="">
        <emissions CO_abs="68.52" CO2_abs="171669.79" HC_abs="14.07" PMx_abs="45.01" NOx_abs="1665.14" fuel_abs="54004.21" electricity_abs="0.00"/>
    </tripinfo>
    <tripinfo id="1048" depart="60.00" departLane="690516091#0_0" departPos="4.60" departSpeed="29.92" departDelay="0.93" arrival="138.00" arrivalLane="10873191#5_2" arrivalPos="21.02" arrivalSpeed="14.70" duration="78.00" routeLength="714.93" waitingTime="39.00" waitingCount="1" stopTime="0.00" timeLoss="52.57" rerouteNo="0" devices="tripinfo_1048 emissions_1048 ssm_1048 fcd_1048" vType="taxi" speedFactor="1.08" vaporized="">
        <emissions CO_abs="8957.71" CO2_abs="265873.59" HC_abs="47.22" PMx_abs="5.97" NOx_abs="111.23" fuel_abs="84803.55" electricity_abs="0.00"/>
    </tripinfo>
    <tripinfo id="1151" depart="64.00" departLane="690516091#0_0" departPos="4.60" departSpeed="32.55" departDelay="0.82" arrival="138.00" arrivalLane="10873191#5_3" arrivalPos="21.02" arrivalSpeed="15.74" duration="74.00" routeLength="714.93" waitingTime="36.00" waitingCount="1" stopTime="0.00" timeLoss="50.26" rerouteNo="0" devices="tripinfo_1151 emissions_1151 ssm_1151 fcd_1151" vType="car" speedFactor="1.17" vaporized="">
        <emissions CO_abs="8693.03" CO2_abs="256288.35" HC_abs="45.77" PMx_abs="5.93" NOx_abs="107.59" fuel_abs="81746.11" electricity_abs="0.00"/>
    </tripinfo>
    <tripinfo id="5" depart="56.00" departLane="28718647#1_0" departPos="7.10" departSpeed="20.69" departDelay="0.35" arrival="140.00" arrivalLane="10873191#5_2" arrivalPos="21.02" arrivalSpeed="13.14" duration="84.00" routeLength="815.38" waitingTime="12.00" waitingCount="1" stopTime="0.00" timeLoss="44.87" rerouteNo="0" devices="tripinfo_5 emissions_5 ssm_5 fcd_5" vType="microbus" speedFactor="0.93" vaporized="">
        <emissions CO_abs="62.73" CO2_abs="168876.45" HC_abs="14.77" PMx_abs="40.22" NOx_abs="1436.59" fuel_abs="53125.60" electricity_abs="0.00"/>
    </tripinfo>
    <tripinfo id="1749" depart="35.00" departLane="50211834#0_0" departPos="9.10" departSpeed="26.89" departDelay="0.00" arrival="143.00" arrivalLane="10873191#5_2" arrivalPos="21.02" arrivalSpeed="14.64" duration="108.00" routeLength="639.12" waitingTime="43.00" waitingCount="2" stopTime="0.00" timeLoss="81.71" rerouteNo="0" devices="tripinfo_1749 emissions_1749 ssm_1749 fcd_1749" vType="truck" speedFactor="0.97" vaporized="">
        <emissions CO_abs="2747.73" CO2_abs="1500841.17" HC_abs="828.88" PMx_abs="593.25" NOx_abs="20683.83" fuel_abs="472239.43" electricity_abs="0.00"/>
    </tripinfo>
    <tripinfo id="1868" depart="66.00" departLane="50211834#0_2" departPos="4.60" departSpeed="27.71" departDelay="0.77" arrival="145.00" arrivalLane="10873191#5_2" arrivalPos="21.02" arrivalSpeed="16.48" duration="79.00" routeLength="643.62" waitingTime="12.00" waitingCount="2" stopTime="0.00" timeLoss="53.34" rerouteNo="0" devices="tripinfo_1868 emissions_1868 ssm_1868 fcd_1868" vType="taxi" speedFactor="1.00" vaporized="">
        <emissions CO_abs="6356.44" CO2_abs="241075.30" HC_abs="34.57" PMx_abs="4.76" NOx_abs="101.61" fuel_abs="76893.07" electricity_abs="0.00"/>
    </tripinfo>
    <tripinfo id="1826" depart="71.00" departLane="50211834#0_2" departPos="4.60" departSpeed="27.41" departDelay="0.31" arrival="146.00" arrivalLane="10873191#5_2" arrivalPos="21.02" arrivalSpeed="16.89" duration="75.00" routeLength="643.62" waitingTime="6.00" waitingCount="3" stopTime="0.00" timeLoss="49.53" rerouteNo="0" devices="tripinfo_1826 emissions_1826 ssm_1826 fcd_1826" vType="taxi" speedFactor="0.99" vaporized="">
        <emissions CO_abs="5968.54" CO2_abs="242930.21" HC_abs="32.85" PMx_abs="4.86" NOx_abs="101.85" fuel_abs="77484.42" electricity_abs="0.00"/>
    </tripinfo>
    <tripinfo id="1757" depart="106.00" departLane="50211834#0_0" departPos="2.30" departSpeed="28.25" departDelay="0.76" arrival="148.00" arrivalLane="10873191#5_2" arrivalPos="21.02" arrivalSpeed="18.63" duration="42.00" routeLength="645.92" waitingTime="0.00" waitingCount="0" stopTime="0.00" timeLoss="16.36" rerouteNo="0" devices="tripinfo_1757 emissions_1757 ssm_1757 fcd_1757" vType="motorcycle" speedFactor="1.02" vaporized="">
        <emissions CO_abs="3231.93" CO2_abs="217166.60" HC_abs="19.98" PMx_abs="4.55" NOx_abs="91.65" fuel_abs="69265.44" electricity_abs="0.00"/>
    </tripinfo>
    <tripinfo id="1674" depart="54.00" departLane="50211834#0_2" departPos="9.10" departSpeed="27.07" departDelay="0.06" arrival="150.00" arrivalLane="10873193#2_0" arrivalPos="224.37" arrivalSpeed="21.41" duration="96.00" routeLength="821.23" waitingTime="21.00" waitingCount="2" stopTime="0.00" timeLoss="59.56" rerouteNo="0" devices="tripinfo_1674 emissions_1674 ssm_1674 fcd_1674" vType="truck" speedFactor="0.97" vaporized="">
        <emissions CO_abs="3282.20" CO2_abs="1758602.43" HC_abs="806.26" PMx_abs="669.19" NOx_abs="24543.35" fuel_abs="553333.65" electricity_abs="0.00"/>
    </tripinfo>
    <tripinfo id="1554" depart="67.00" departLane="50211834#0_0" departPos="9.10" departSpeed="28.05" departDelay="0.27" arrival="153.00" arrivalLane="10873193#2_0" arrivalPos="224.37" arrivalSpeed="22.05" duration="86.00" routeLength="818.42" waitingTime="9.00" waitingCount="2" stopTime="0.00" timeLoss="51.35" rerouteNo="0" devices="tripinfo_1554 emissions_1554 ssm_1554 fcd_1554" vType="truck" speedFactor="1.01" vaporized="">
        <emissions CO_abs="3177.77" CO2_abs="1685267.52" HC_abs="720.05" PMx_abs="634.11" NOx_abs="23622.40" fuel_abs="530255.46" electricity_abs="0.00"/>
    </tripinfo>
    <tripinfo id="1381" depart="101.00" departLane="690516091#0_0" departPos="4.60" departSpeed="26.40" departDelay="0.73" arrival="156.00" arrivalLane="305873958#3-AddedOnRampEdge_3" arrivalPos="99.87" arrivalSpeed="20.66" duration="55.00" routeLength="654.78" waitingTime="13.00" waitingCount="1" stopTime="0.00" timeLoss="26.13" rerouteNo="0" devices="tripinfo_1381 emissions_1381 ssm_1381 fcd_1381" vType="taxi" speedFactor="0.95" vaporized="">
        <emissions CO_abs="5255.00" CO2_abs="234583.13" HC_abs="29.51" PMx_abs="4.97" NOx_abs="97.58" fuel_abs="74821.60" electricity_abs="0.00"/>
    </tripinfo>
    <tripinfo id="708" depart="77.00" departLane="29181613#1_0" departPos="7.10" departSpeed="25.02" departDelay="0.95" arrival="160.00" arrivalLane="305873958#3-AddedOnRampEdge_0" arrivalPos="99.87" arrivalSpeed="19.98" duration="83.00" routeLength="475.81" waitingTime="43.00" waitingCount="2" stopTime="0.00" timeLoss="60.00" rerouteNo="0" devices="tripinfo_708 emissions_708 ssm_708 fcd_708" vType="microbus" speedFactor="0.90" vaporized="">
        <emissions CO_abs="84.16" CO2_abs="160348.70" HC_abs="13.38" PMx_abs="47.34" NOx_abs="1743.15" fuel_abs="50443.23" electricity_abs="0.00"/>
    </tripinfo>
    <tripinfo id="826" depart="89.00" departLane="29181613#1_0" departPos="4.60" departSpeed="30.33" departDelay="0.12" arrival="162.00" arrivalLane="305873958#3-AddedOnRampEdge_0" arrivalPos="99.87" arrivalSpeed="23.58" duration="73.00" routeLength="478.31" waitingTime="28.00" waitingCount="2" stopTime="0.00" timeLoss="53.63" rerouteNo="0" devices="tripinfo_826 emissions_826 ssm_826 fcd_826" vType="car" speedFactor="1.09" vaporized="">
        <emissions CO_abs="8689.58" CO2_abs="252810.06" HC_abs="45.55" PMx_abs="5.58" NOx_abs="108.54" fuel_abs="80636.72" electricity_abs="0.00"/>
    </tripinfo>
    <tripinfo id="1630" depart="104.00" departLane="50211834#0_1" departPos="4.60" departSpeed="23.75" departDelay="0.17" arrival="163.00" arrivalLane="10873193#2_1" arrivalPos="224.37" arrivalSpeed="18.93" duration="59.00" routeLength="825.73" waitingTime="1.00" waitingCount="1" stopTime="0.00" timeLoss="16.65" rerouteNo="0" devices="tripinfo_1630 emissions_1630 ssm_1630 fcd_1630" vType="car" speedFactor="0.85" vaporized="">
        <emissions CO_abs="3461.52" CO2_abs="228926.02" HC_abs="20.96" PMx_abs="4.28" NOx_abs="91.81" fuel_abs="73016.75" electricity_abs="0.00"/>
    </tripinfo>
    <tripinfo id="1692" depart="102.00" departLane="50211834#0_0" departPos="4.60" departSpeed="23.62" departDelay="0.13" arrival="165.00" arrivalLane="10873193#2_1" arrivalPos="224.37" arrivalSpeed="18.66" duration="63.00" routeLength="825.73" waitingTime="8.00" waitingCount="1" stopTime="0.00" timeLoss="21.08" rerouteNo="0" devices="tripinfo_1692 emissions_1692 ssm_1692 fcd_1692" vType="car" speedFactor="0.85" vaporized="">
        <emissions CO_abs="4168.95" CO2_abs="242901.83" HC_abs="24.55" PMx_abs="4.54" NOx_abs="97.13" fuel_abs="77474.72" electricity_abs="0.00"/>
    </tripinfo>
    <tripinfo id="692" depart="109.00" departLane="29181613#1_1" departPos="4.60" departSpeed="27.67" departDelay="0.75" arrival="165.00" arrivalLane="305873958#3-AddedOnRampEdge_0" arrivalPos="99.87" arrivalSpeed="21.37" duration="56.00" routeLength="478.31" waitingTime="14.00" waitingCount="1" stopTime="0.00" timeLoss="34.93" rerouteNo="0" devices="tripinfo_692 emissions_692 ssm_692 fcd_692" vType="car" speedFactor="1.00" vaporized="">
        <emissions CO_abs="5260.98" CO2_abs="191846.70" HC_abs="28.42" PMx_abs="4.02" NOx_abs="80.63" fuel_abs="61191.12" electricity_abs="0.00"/>
    </tripinfo>
    <tripinfo id="1427" depart="60.00" departLane="50211834#0_2" departPos="1.90" departSpeed="15.00" departDelay="0.15" arrival="167.00" arrivalLane="10873193#2_0" arrivalPos="224.37" arrivalSpeed="14.22" duration="107.00" routeLength="828.43" waitingTime="15.00" waitingCount="2" stopTime="0.00" timeLoss="50.79" rerouteNo="0" devices="tripinfo_1427 emissions_1427 ssm_1427 fcd_1427" vType="bicycle" speedFactor="1.01" vaporized="">