<?xml version="1.0" encoding="UTF-8"?>

<!-- generated on 2026-05-02T17:19:31.956705+02:00 by Eclipse SUMO sumo 1.25.0
<sumoConfiguration xmlns:xsi="http://www.w3.org/2001/XMLSchema-instance" xsi:noNamespaceSchemaLocation="http://sumo.dlr.de/xsd/sumoConfiguration.xsd">

    <input>
        <net-file value="D:\sumoflow-ai-traffic-optimization\simulation\maps\tahrirupdated.net.xml"/>
        <route-files value="D:\sumoflow-ai-traffic-optimization\simulation\maps\routes_night.rou.xml"/>
        <additional-files value="D:\sumoflow-ai-traffic-optimization\simulation\maps\tahrir.add.xml"/>
    </input>

    <output>
        <emission-output value="D:\sumoflow-ai-traffic-optimization\simulation\maps\outputs/emission_night.xml"/>
        <fcd-output value="D:\sumoflow-ai-traffic-optimization\simulation\maps\outputs/fcd_night.xml"/>
        <summary-output value="D:\sumoflow-ai-traffic-optimization\simulation\maps\outputs/summary_night.xml"/>
        <tripinfo-output value="D:\sumoflow-ai-traffic-optimization\simulation\maps\outputs/tripinfo_night.xml"/>
    </output>

    <time>
        <begin value="79200"/>
        <end value="86400"/>
        <step-length value="1"/>
    </time>

    <processing>
        <ignore-route-errors value="true"/>
        <collision.action value="warn"/>
        <time-to-teleport value="300"/>
    </processing>

    <report>
        <verbose value="true"/>
        <no-warnings value="true"/>
        <no-step-log value="true"/>
    </report>

    <traci_server>
        <remote-port value="8816"/>
    </traci_server>

    <gui_only>
        <gui-settings-file value="D:\sumoflow-ai-traffic-optimization\simulation\maps\gui_settings.xml"/>
    </gui_only>

</sumoConfiguration>
-->

<tripinfos xmlns:xsi="http://www.w3.org/2001/XMLSchema-instance" xsi:noNamespaceSchemaLocation="http://sumo.dlr.de/xsd/tripinfo_file.xsd">
    <tripinfo id="flow_8.0" depart="79200.00" departLane="29181613#4_0" departPos="4.60" departSpeed="7.57" departDelay="0.00" arrival="79209.00" arrivalLane="192591565#1_0" arrivalPos="13.34" arrivalSpeed="12.67" duration="9.00" routeLength="94.73" waitingTime="0.00" waitingCount="0" stopTime="0.00" timeLoss="1.32" rerouteNo="0" devices="tripinfo_flow_8.0 emissions_flow_8.0 fcd_flow_8.0" vType="passenger" speedFactor="0.86" vaporized="">
        <emissions CO_abs="273.03" CO2_abs="39443.19" HC_abs="1.80" PMx_abs="3.10" NOx_abs="13.56" fuel_abs="12786.90" electricity_abs="0.00"/>
    </tripinfo>
    <tripinfo id="flow_10.0" depart="79200.00" departLane="29181613#2_0" departPos="4.60" departSpeed="0.08" departDelay="0.00" arrival="79210.00" arrivalLane="29181613#5_0" arrivalPos="16.94" arrivalSpeed="12.70" duration="10.00" routeLength="74.34" waitingTime="0.00" waitingCount="0" stopTime="0.00" timeLoss="3.91" rerouteNo="0" devices="tripinfo_flow_10.0 emissions_flow_10.0 fcd_flow_10.0" vType="passenger" speedFactor="1.03" vaporized="">
        <emissions CO_abs="259.17" CO2_abs="48807.53" HC_abs="1.71" PMx_abs="2.57" NOx_abs="15.16" fuel_abs="15822.54" electricity_abs="0.00"/>
    </tripinfo>
    <tripinfo id="flow_5.0" depart="79200.00" departLane="10873191#2_0" departPos="4.60" departSpeed="0.61" departDelay="0.00" arrival="79214.00" arrivalLane="10873191#5_0" arrivalPos="21.02" arrivalSpeed="13.51" duration="14.00" routeLength="146.91" waitingTime="0.00" waitingCount="0" stopTime="0.00" timeLoss="3.36" rerouteNo="0" devices="tripinfo_flow_5.0 emissions_flow_5.0 fcd_flow_5.0" vType="passenger" speedFactor="1.05" vaporized="">
        <emissions CO_abs="269.00" CO2_abs="51193.80" HC_abs="1.79" PMx_abs="3.84" NOx_abs="16.52" fuel_abs="16596.21" electricity_abs="0.00"/>
    </tripinfo>
    <tripinfo id="flow_6.0" depart="79200.00" departLane="29181613#1_2" departPos="4.60" departSpeed="10.32" departDelay="0.00" arrival="79215.00" arrivalLane="961982432#1_0" arrivalPos="15.37" arrivalSpeed="13.26" duration="15.00" routeLength="184.21" waitingTime="0.00" waitingCount="0" stopTime="0.00" timeLoss="0.85" rerouteNo="0" devices="tripinfo_flow_6.0 emissions_flow_6.0 fcd_flow_6.0" vType="passenger" speedFactor="0.89" vaporized="">
        <emissions CO_abs="253.15" CO2_abs="38847.81" HC_abs="1.69" PMx_abs="4.47" NOx_abs="13.90" fuel_abs="12593.97" electricity_abs="0.00"/>
    </tripinfo>
    <tripinfo id="flow_19.0" depart="79203.00" departLane="-711671304_0" departPos="4.60" departSpeed="3.29" departDelay="3.00" arrival="79223.00" arrivalLane="138136500#1_0" arrivalPos="9.41" arrivalSpeed="12.63" duration="20.00" routeLength="196.36" waitingTime="0.00" waitingCount="0" stopTime="0.00" timeLoss="5.01" rerouteNo="0" devices="tripinfo_flow_19.0 emissions_flow_19.0 fcd_flow_19.0" vType="passenger" speedFactor="1.02" vaporized="">
        <emissions CO_abs="268.83" CO2_abs="56321.03" HC_abs="1.78" PMx_abs="4.58" NOx_abs="18.47" fuel_abs="18258.46" electricity_abs="0.00"/>
    </tripinfo>
    <tripinfo id="flow_11.0" depart="79200.00" departLane="50211834#0_0" departPos="4.60" departSpeed="9.35" departDelay="0.00" arrival="79226.00" arrivalLane="305873958#0_0" arrivalPos="17.01" arrivalSpeed="12.67" duration="26.00" routeLength="327.09" waitingTime="0.00" waitingCount="0" stopTime="0.00" timeLoss="1.70" rerouteNo="0" devices="tripinfo_flow_11.0 emissions_flow_11.0 fcd_flow_11.0" vType="passenger" speedFactor="1.05" vaporized="">
        <emissions CO_abs="415.43" CO2_abs="66798.20" HC_abs="2.78" PMx_abs="7.57" NOx_abs="23.64" fuel_abs="21655.13" electricity_abs="0.00"/>
    </tripinfo>
    <tripinfo id="flow_3.0" depart="79200.00" departLane="-711671304_0" departPos="4.60" departSpeed="6.83" departDelay="0.00" arrival="79271.00" arrivalLane="10873193#0_0" arrivalPos="0.20" arrivalSpeed="12.24" duration="71.00" routeLength="183.60" waitingTime="43.00" waitingCount="1" stopTime="0.00" timeLoss="55.61" rerouteNo="0" devices="tripinfo_flow_3.0 emissions_flow_3.0 fcd_flow_3.0" vType="passenger" speedFactor="1.03" vaporized="">
        <emissions CO_abs="399.56" CO2_abs="158304.25" HC_abs="2.64" PMx_abs="5.13" NOx_abs="55.63" fuel_abs="51320.36" electricity_abs="0.00"/>
    </tripinfo>
    <tripinfo id="flow_17.0" depart="79200.00" departLane="690516091#1_1" departPos="4.60" departSpeed="0.84" departDelay="0.00" arrival="79271.00" arrivalLane="305873958#3-AddedOnRampEdge_0" arrivalPos="99.87" arrivalSpeed="13.62" duration="71.00" routeLength="442.34" waitingTime="28.00" waitingCount="1" stopTime="0.00" timeLoss="38.63" rerouteNo="0" devices="tripinfo_flow_17.0 emissions_flow_17.0 fcd_flow_17.0" vType="passenger" speedFactor="0.94" vaporized="">
        <emissions CO_abs="640.58" CO2_abs="166306.83" HC_abs="4.26" PMx_abs="10.34" NOx_abs="58.42" fuel_abs="53914.57" electricity_abs="0.00"/>
    </tripinfo>
    <tripinfo id="flow_0.0" depart="79200.00" departLane="29181613#5_0" departPos="4.60" departSpeed="12.38" departDelay="0.00" arrival="79273.00" arrivalLane="10873191#0_0" arrivalPos="10.67" arrivalSpeed="13.21" duration="73.00" routeLength="257.44" waitingTime="38.00" waitingCount="1" stopTime="0.00" timeLoss="54.11" rerouteNo="0" devices="tripinfo_flow_0.0 emissions_flow_0.0 fcd_flow_0.0" vType="passenger" speedFactor="0.94" vaporized="">
        <emissions CO_abs="495.48" CO2_abs="165049.69" HC_abs="3.28" PMx_abs="6.22" NOx_abs="57.07" fuel_abs="53506.97" electricity_abs="0.00"/>
    </tripinfo>
    <tripinfo id="flow_2.0" depart="79200.00" departLane="28718647#2_1" departPos="3.34" departSpeed="0.63" departDelay="0.00" arrival="79275.00" arrivalLane="10873191#0_0" arrivalPos="10.67" arrivalSpeed="13.60" duration="75.00" routeLength="187.67" waitingTime="46.00" waitingCount="1" stopTime="0.00" timeLoss="60.67" rerouteNo="0" devices="tripinfo_flow_2.0 emissions_flow_2.0 fcd_flow_2.0" vType="passenger" speedFactor="1.08" vaporized="">
        <emissions CO_abs="458.75" CO2_abs="174472.99" HC_abs="3.03" PMx_abs="5.36" NOx_abs="60.88" fuel_abs="56561.90" electricity_abs="0.00"/>
    </tripinfo>
    <tripinfo id="flow_12.0" depart="79215.00" departLane="29181613#5_0" departPos="4.60" departSpeed="3.35" departDelay="15.00" arrival="79278.00" arrivalLane="192591565#2_0" arrivalPos="258.68" arrivalSpeed="13.66" duration="63.00" routeLength="337.01" waitingTime="26.00" waitingCount="1" stopTime="0.00" timeLoss="38.42" rerouteNo="0" devices="tripinfo_flow_12.0 emissions_flow_12.0 fcd_flow_12.0" vType="passenger" speedFactor="1.12" vaporized="">
        <emissions CO_abs="492.21" CO2_abs="136194.53" HC_abs="3.28" PMx_abs="7.97" NOx_abs="48.27" fuel_abs="44152.64" electricity_abs="0.00"/>
    </tripinfo>
    <tripinfo id="flow_15.0" depart="79201.00" departLane="-711671304_0" departPos="4.60" departSpeed="4.99" departDelay="1.00" arrival="79282.00" arrivalLane="305873957#0_0" arrivalPos="61.65" arrivalSpeed="13.16" duration="81.00" routeLength="262.14" waitingTime="39.00" waitingCount="1" stopTime="0.00" timeLoss="58.10" rerouteNo="0" devices="tripinfo_flow_15.0 emissions_flow_15.0 fcd_flow_15.0" vType="passenger" speedFactor="0.88" vaporized="">
        <emissions CO_abs="479.26" CO2_abs="178163.75" HC_abs="3.16" PMx_abs="6.43" NOx_abs="61.32" fuel_abs="57758.42" electricity_abs="0.00"/>
    </tripinfo>
    <tripinfo id="flow_1.0" depart="79200.00" departLane="690516091#0_1" departPos="4.60" departSpeed="9.90" departDelay="0.00" arrival="79283.00" arrivalLane="10873191#2_2" arrivalPos="39.21" arrivalSpeed="13.72" duration="83.00" routeLength="602.63" waitingTime="19.00" waitingCount="2" stopTime="0.00" timeLoss="38.74" rerouteNo="0" devices="tripinfo_flow_1.0 emissions_flow_1.0 fcd_flow_1.0" vType="passenger" speedFactor="1.01" vaporized="">
        <emissions CO_abs="1000.75" CO2_abs="216179.38" HC_abs="6.65" PMx_abs="14.13" NOx_abs="73.00" fuel_abs="70082.32" electricity_abs="0.00"/>
    </tripinfo>
    <tripinfo id="flow_14.0" depart="79200.00" departLane="28718647#2_0" departPos="3.34" departSpeed="6.28" departDelay="0.00" arrival="79288.00" arrivalLane="10873193#1_0" arrivalPos="132.82" arrivalSpeed="13.08" duration="88.00" routeLength="298.08" waitingTime="48.00" waitingCount="2" stopTime="0.00" timeLoss="64.68" rerouteNo="0" devices="tripinfo_flow_14.0 emissions_flow_14.0 fcd_flow_14.0" vType="passenger" speedFactor="0.93" vaporized="">
        <emissions CO_abs="474.60" CO2_abs="179619.10" HC_abs="3.15" PMx_abs="6.71" NOx_abs="63.47" fuel_abs="58230.39" electricity_abs="0.00"/>
    </tripinfo>
    <tripinfo id="flow_4.0" depart="79205.00" departLane="29181613#5_0" departPos="4.60" departSpeed="2.21" departDelay="5.00" arrival="79289.00" arrivalLane="28718874#1_0" arrivalPos="96.17" arrivalSpeed="12.76" duration="84.00" routeLength="327.92" waitingTime="39.00" waitingCount="4" stopTime="0.00" timeLoss="59.90" rerouteNo="0" devices="tripinfo_flow_4.0 emissions_flow_4.0 fcd_flow_4.0" vType="passenger" speedFactor="0.83" vaporized="">
        <emissions CO_abs="651.04" CO2_abs="198917.87" HC_abs="4.31" PMx_abs="8.02" NOx_abs="68.86" fuel_abs="64486.43" electricity_abs="0.00"/>
    </tripinfo>
    <tripinfo id="flow_16.0" depart="79200.00" departLane="50211834#1_0" departPos="4.60" departSpeed="3.67" departDelay="0.00" arrival="79298.00" arrivalLane="10873193#2_0" arrivalPos="224.37" arrivalSpeed="13.58" duration="98.00" routeLength="575.24" waitingTime="43.00" waitingCount="1" stopTime="0.00" timeLoss="54.74" rerouteNo="0" devices="tripinfo_flow_16.0 emissions_flow_16.0 fcd_flow_16.0" vType="passenger" speedFactor="0.94" vaporized="">
        <emissions CO_abs="795.47" CO2_abs="213932.87" HC_abs="5.30" PMx_abs="13.63" NOx_abs="76.68" fuel_abs="69354.56" electricity_abs="0.00"/>
    </tripinfo>
    <tripinfo id="flow_9.0" depart="79202.00" departLane="28718647#1_0" departPos="4.60" departSpeed="6.42" departDelay="2.00" arrival="79306.00" arrivalLane="10873193#0_0" arrivalPos="0.20" arrivalSpeed="8.81" duration="104.00" routeLength="623.86" waitingTime="45.00" waitingCount="1" stopTime="0.00" timeLoss="57.75" rerouteNo="0" devices="tripinfo_flow_9.0 emissions_flow_9.0 fcd_flow_9.0" vType="passenger" speedFactor="1.09" vaporized="">
        <emissions CO_abs="825.07" CO2_abs="217458.70" HC_abs="5.50" PMx_abs="13.10" NOx_abs="77.38" fuel_abs="70497.57" electricity_abs="0.00"/>
    </tripinfo>
    <tripinfo id="flow_18.0" depart="79201.00" departLane="29181613#4_0" departPos="4.60" departSpeed="4.27" departDelay="1.00" arrival="79306.00" arrivalLane="10873191#5_0" arrivalPos="21.02" arrivalSpeed="13.35" duration="105.00" routeLength="444.73" waitingTime="43.00" waitingCount="3" stopTime="0.00" timeLoss="72.79" rerouteNo="0" devices="tripinfo_flow_18.0 emissions_flow_18.0 fcd_flow_18.0" vType="passenger" speedFactor="1.16" vaporized="">
        <emissions CO_abs="886.89" CO2_abs="253045.03" HC_abs="5.86" PMx_abs="10.16" NOx_abs="86.16" fuel_abs="82033.80" electricity_abs="0.00"/>
    </tripinfo>
    <tripinfo id="microbus_23" depart="79305.00" departLane="29181613#2_0" departPos="6.10" departSpeed="7.42" departDelay="0.00" arrival="79313.00" arrivalLane="29181613#5_0" arrivalPos="16.94" arrivalSpeed="10.70" duration="8.00" routeLength="72.84" waitingTime="0.00" waitingCount="0" stopTime="0.00" timeLoss="0.63" rerouteNo="0" devices="tripinfo_microbus_23 emissions_microbus_23 fcd_microbus_23" vType="microbus" speedFactor="0.89" vaporized="">
        <emissions CO_abs="100.38" CO2_abs="22678.36" HC_abs="0.67" PMx_abs="2.14" NOx_abs="7.68" fuel_abs="7352.04" electricity_abs="0.00"/>
    </tripinfo>
    <tripinfo id="flow_7.0" depart="79200.00" departLane="28718647#1_0" departPos="4.60" departSpeed="3.44" departDelay="0.00" arrival="79324.00" arrivalLane="28718874#2_0" arrivalPos="94.05" arrivalSpeed="12.70" duration="124.00" routeLength="824.72" waitingTime="48.00" waitingCount="1" stopTime="0.00" timeLoss="63.01" rerouteNo="0" devices="tripinfo_flow_7.0 emissions_flow_7.0 fcd_flow_7.0" vType="passenger" speedFactor="0.94" vaporized="">
        <emissions CO_abs="1057.80" CO2_abs="270208.21" HC_abs="7.06" PMx_abs="18.79" NOx_abs="95.91" fuel_abs="87598.36" electricity_abs="0.00"/>
    </tripinfo>
    <tripinfo id="flow_13.0" depart="79202.00" departLane="29181613#2_0" departPos="4.60" departSpeed="0.51" departDelay="2.00" arrival="79334.00" arrivalLane="10873193#2_0" arrivalPos="224.37" arrivalSpeed="12.99" duration="132.00" routeLength="666.98" waitingTime="50.00" waitingCount="5" stopTime="0.00" timeLoss="83.07" rerouteNo="0" devices="tripinfo_flow_13.0 emissions_flow_13.0 fcd_flow_13.0" vType="passenger" speedFactor="0.99" vaporized="">
        <emissions CO_abs="967.00" CO2_abs="291994.06" HC_abs="6.43" PMx_abs="15.31" NOx_abs="100.77" fuel_abs="94660.61" electricity_abs="0.00"/>
    </tripinfo>
    <tripinfo id="flow_10.1" depart="79350.00" departLane="29181613#2_0" departPos="4.60" departSpeed="2.55" departDelay="0.00" arrival="79360.00" arrivalLane="29181613#5_0" arrivalPos="16.94" arrivalSpeed="12.77" duration="10.00" routeLength="74.34" waitingTime="0.00" waitingCount="0" stopTime="0.00" timeLoss="3.89" rerouteNo="0" devices="tripinfo_flow_10.1 emissions_flow_10.1 fcd_flow_10.1" vType="passenger" speedFactor="1.18" vaporized="">
        <emissions CO_abs="203.31" CO2_abs="39777.60" HC_abs="1.34" PMx_abs="2.26" NOx_abs="12.54" fuel_abs="12895.25" electricity_abs="0.00"/>
    </tripinfo>
    <tripinfo id="flow_8.1" depart="79350.00" departLane="29181613#4_0" departPos="4.60" departSpeed="2.34" departDelay="0.00" arrival="79361.00" arrivalLane="192591565#1_0" arrivalPos="13.34" arrivalSpeed="13.01" duration="11.00" routeLength="94.73" waitingTime="0.00" waitingCount="0" stopTime="0.00" timeLoss="3.54" rerouteNo="0" devices="tripinfo_flow_8.1 emissions_flow_8.1 fcd_flow_8.1" vType="passenger" speedFactor="1.02" vaporized="">
        <emissions CO_abs="200.54" CO2_abs="41669.44" HC_abs="1.33" PMx_abs="3.02" NOx_abs="13.34" fuel_abs="13508.59" electricity_abs="0.00"/>
    </tripinfo>
    <tripinfo id="flow_6.1" depart="79350.00" departLane="29181613#1_2" departPos="4.60" departSpeed="6.84" departDelay="0.00" arrival="79365.00" arrivalLane="961982432#1_0" arrivalPos="15.37" arrivalSpeed="12.87" duration="15.00" routeLength="184.21" waitingTime="0.00" waitingCount="0" stopTime="0.00" timeLoss="1.45" rerouteNo="0" devices="tripinfo_flow_6.1 emissions_flow_6.1 fcd_flow_6.1" vType="passenger" speedFactor="1.17" vaporized="">
        <emissions CO_abs="262.66" CO2_abs="42766.83" HC_abs="1.75" PMx_abs="4.25" NOx_abs="14.79" fuel_abs="13864.43" electricity_abs="0.00"/>
    </tripinfo>
    <tripinfo id="microbus_20" depart="79206.00" departLane="29181613#2_0" departPos="6.10" departSpeed="3.68" departDelay="3.00" arrival="79380.00" arrivalLane="10873193#2_0" arrivalPos="224.37" arrivalSpeed="10.71" duration="174.00" routeLength="665.48" waitingTime="34.00" waitingCount="5" stopTime="53.00" timeLoss="60.40" rerouteNo="0" devices="tripinfo_microbus_20 emissions_microbus_20 fcd_microbus_20" vType="microbus" speedFactor="1.06" vaporized="">
        <emissions CO_abs="761.20" CO2_abs="347717.25" HC_abs="5.05" PMx_abs="15.26" NOx_abs="122.08" fuel_abs="112725.99" electricity_abs="0.00"/>
    </tripinfo>
    <tripinfo id="flow_11.1" depart="79350.00" departLane="50211834#0_0" departPos="4.60" departSpeed="8.91" departDelay="0.00" arrival="79387.00" arrivalLane="305873958#0_0" arrivalPos="17.01" arrivalSpeed="13.72" duration="37.00" routeLength="327.09" waitingTime="7.00" waitingCount="1" stopTime="0.00" timeLoss="12.26" rerouteNo="0" devices="tripinfo_flow_11.1 emissions_flow_11.1 fcd_flow_11.1" vType="passenger" speedFactor="1.10" vaporized="">
        <emissions CO_abs="535.00" CO2_abs="101003.82" HC_abs="3.56" PMx_abs="8.31" NOx_abs="35.13" fuel_abs="32744.02" electricity_abs="0.00"/>
    </tripinfo>
    <tripinfo id="flow_12.1" depart="79361.00" departLane="29181613#5_0" departPos="4.60" departSpeed="5.79" departDelay="11.00" arrival="79388.00" arrivalLane="192591565#2_0" arrivalPos="258.68" arrivalSpeed="13.69" duration="27.00" routeLength="337.01" waitingTime="0.00" waitingCount="0" stopTime="0.00" timeLoss="2.30" rerouteNo="0" devices="tripinfo_flow_12.1 emissions_flow_12.1 fcd_flow_12.1" vType="passenger" speedFactor="0.90" vaporized="">
        <emissions CO_abs="473.71" CO2_abs="74520.04" HC_abs="3.16" PMx_abs="7.51" NOx_abs="25.95" fuel_abs="24158.39" electricity_abs="0.00"/>
    </tripinfo>
    <tripinfo id="flow_19.1" depart="79353.00" departLane="-711671304_0" departPos="4.60" departSpeed="3.49" departDelay="3.00" arrival="79392.00" arrivalLane="138136500#1_0" arrivalPos="9.41" arrivalSpeed="12.79" duration="39.00" routeLength="196.36" waitingTime="12.00" waitingCount="1" stopTime="0.00" timeLoss="23.66" rerouteNo="0" devices="tripinfo_flow_19.1 emissions_flow_19.1 fcd_flow_19.1" vType="passenger" speedFactor="1.00" vaporized="">
        <emissions CO_abs="363.00" CO2_abs="96613.51" HC_abs="2.40" PMx_abs="4.39" NOx_abs="32.15" fuel_abs="31320.67" electricity_abs="0.00"/>
    </tripinfo>
    <tripinfo id="flow_0.1" depart="79350.00" departLane="29181613#5_0" departPos="4.60" departSpeed="9.94" departDelay="0.00" arrival="79400.00" arrivalLane="10873191#0_0" arrivalPos="10.67" arrivalSpeed="13.19" duration="50.00" routeLength="257.44" waitingTime="23.00" waitingCount="1" stopTime="0.00" timeLoss="30.58" rerouteNo="0" devices="tripinfo_flow_0.1 emissions_flow_0.1 fcd_flow_0.1" vType="passenger" speedFactor="0.95" vaporized="">
        <emissions CO_abs="431.80" CO2_abs="111202.09" HC_abs="2.87" PMx_abs="5.70" NOx_abs="39.55" fuel_abs="36050.32" electricity_abs="0.00"/>
    </tripinfo>
    <tripinfo id="flow_3.1" depart="79350.00" departLane="-711671304_0" departPos="4.60" departSpeed="12.99" departDelay="0.00" arrival="79400.00" arrivalLane="10873193#0_0" arrivalPos="0.20" arrivalSpeed="11.93" duration="50.00" routeLength="183.60" waitingTime="20.00" waitingCount="1" stopTime="0.00" timeLoss="35.51" rerouteNo="0" devices="tripinfo_flow_3.1 emissions_flow_3.1 fcd_flow_3.1" vType="passenger" speedFactor="1.18" vaporized="">
        <emissions CO_abs="279.95" CO2_abs="106339.26" HC_abs="1.85" PMx_abs="4.22" NOx_abs="36.35" fuel_abs="34473.88" electricity_abs="0.00"/>
    </tripinfo>
    <tripinfo id="flow_2.1" depart="79350.00" departLane="28718647#2_1" departPos="3.34" departSpeed="9.61" departDelay="0.00" arrival="79401.00" arrivalLane="10873191#0_0" arrivalPos="10.67" arrivalSpeed="13.50" duration="51.00" routeLength="187.67" waitingTime="24.00" waitingCount="1" stopTime="0.00" timeLoss="36.74" rerouteNo="0" devices="tripinfo_flow_2.1 emissions_flow_2.1 fcd_flow_2.1" vType="passenger" speedFactor="0.93" vaporized="">
        <emissions CO_abs="468.79" CO2_abs="130804.25" HC_abs="3.10" PMx_abs="5.16" NOx_abs="44.53" fuel_abs="42404.92" electricity_abs="0.00"/>
    </tripinfo>
    <tripinfo id="flow_9.1" depart="79351.00" departLane="28718647#1_0" departPos="4.60" departSpeed="7.42" departDelay="1.00" arrival="79411.00" arrivalLane="10873193#0_0" arrivalPos="0.20" arrivalSpeed="10.95" duration="60.00" routeLength="619.28" waitingTime="1.00" waitingCount="1" stopTime="0.00" timeLoss="14.41" rerouteNo="0" devices="tripinfo_flow_9.1 emissions_flow_9.1 fcd_flow_9.1" vType="passenger" speedFactor="0.97" vaporized="">
        <emissions CO_abs="770.89" CO2_abs="143943.20" HC_abs="5.14" PMx_abs="12.90" NOx_abs="48.70" fuel_abs="46664.29" electricity_abs="0.00"/>
    </tripinfo>
    <tripinfo id="flow_14.1" depart="79350.00" departLane="28718647#2_0" departPos="3.34" departSpeed="0.39" departDelay="0.00" arrival="79412.00" arrivalLane="10873193#1_2" arrivalPos="132.82" arrivalSpeed="13.69" duration="62.00" routeLength="298.08" waitingTime="21.00" waitingCount="1" stopTime="0.00" timeLoss="38.72" rerouteNo="0" devices="tripinfo_flow_14.1 emissions_flow_14.1 fcd_flow_14.1" vType="passenger" speedFactor="0.96" vaporized="">
        <emissions CO_abs="560.01" CO2_abs="160780.85" HC_abs="3.71" PMx_abs="7.60" NOx_abs="52.76" fuel_abs="52122.84" electricity_abs="0.00"/>
    </tripinfo>
    <tripinfo id="microbus_22" depart="79290.00" departLane="28718647#2_0" departPos="3.34" departSpeed="0.99" departDelay="0.00" arrival="79416.00" arrivalLane="10873193#1_1" arrivalPos="132.82" arrivalSpeed="10.28" duration="126.00" routeLength="294.58" waitingTime="39.00" waitingCount="2" stopTime="41.00" timeLoss="57.13" rerouteNo="0" devices="tripinfo_microbus_22 emissions_microbus_22 fcd_microbus_22" vType="microbus" speedFactor="0.97" vaporized="">
        <emissions CO_abs="411.99" CO2_abs="236968.26" HC_abs="2.72" PMx_abs="6.12" NOx_abs="84.44" fuel_abs="76822.47" electricity_abs="0.00"/>
    </tripinfo>
    <tripinfo id="flow_7.1" depart="79350.00" departLane="28718647#1_0" departPos="4.60" departSpeed="8.06" departDelay="0.00" arrival="79421.00" arrivalLane="28718874#2_0" arrivalPos="94.05" arrivalSpeed="13.67" duration="71.00" routeLength="824.72" waitingTime="0.00" waitingCount="0" stopTime="0.00" timeLoss="10.24" rerouteNo="0" devices="tripinfo_flow_7.1 emissions_flow_7.1 fcd_flow_7.1" vType="passenger" speedFactor="0.99" vaporized="">
        <emissions CO_abs="1034.00" CO2_abs="170354.61" HC_abs="6.89" PMx_abs="16.38" NOx_abs="58.63" fuel_abs="55226.59" electricity_abs="0.00"/>
    </tripinfo>
    <tripinfo id="flow_15.1" depart="79351.00" departLane="-711671304_0" departPos="4.60" departSpeed="1.19" departDelay="1.00" arrival="79421.00" arrivalLane="305873957#0_0" arrivalPos="61.65" arrivalSpeed="13.42" duration="70.00" routeLength="262.14" waitingTime="16.00" waitingCount="4" stopTime="0.00" timeLoss="48.69" rerouteNo="0" devices="tripinfo_flow_15.1 emissions_flow_15.1 fcd_flow_15.1" vType="passenger" speedFactor="1.09" vaporized="">
        <emissions CO_abs="527.70" CO2_abs="176500.62" HC_abs="3.49" PMx_abs="6.99" NOx_abs="57.08" fuel_abs="57218.64" electricity_abs="0.00"/>
    </tripinfo>
    <tripinfo id="flow_4.1" depart="79351.00" departLane="29181613#5_0" departPos="4.60" departSpeed="2.49" departDelay="1.00" arrival="79424.00" arrivalLane="28718874#1_0" arrivalPos="96.17" arrivalSpeed="13.69" duration="73.00" routeLength="327.92" waitingTime="32.00" waitingCount="4" stopTime="0.00" timeLoss="48.39" rerouteNo="0" devices="tripinfo_flow_4.1 emissions_flow_4.1 fcd_flow_4.1" vType="passenger" speedFactor="1.15" vaporized="">
        <emissions CO_abs="584.78" CO2_abs="171343.05" HC_abs="3.88" PMx_abs="7.96" NOx_abs="59.46" fuel_abs="55547.20" electricity_abs="0.00"/>
    </tripinfo>
    <tripinfo id="flow_13.1" depart="79352.00" departLane="29181613#2_0" departPos="4.60" departSpeed="0.65" departDelay="2.00" arrival="79433.00" arrivalLane="10873193#2_1" arrivalPos="224.37" arrivalSpeed="13.48" duration="81.00" routeLength="666.98" waitingTime="14.00" waitingCount="2" stopTime="0.00" timeLoss="32.51" rerouteNo="0" devices="tripinfo_flow_13.1 emissions_flow_13.1 fcd_flow_13.1" vType="passenger" speedFactor="1.03" vaporized="">
        <emissions CO_abs="907.76" CO2_abs="198423.87" HC_abs="6.04" PMx_abs="14.67" NOx_abs="66.68" fuel_abs="64326.20" electricity_abs="0.00"/>
    </tripinfo>
    <tripinfo id="flow_5.1" depart="79350.00" departLane="10873191#2_0" departPos="4.60" departSpeed="4.28" departDelay="0.00" arrival="79436.00" arrivalLane="10873191#5_0" arrivalPos="21.02" arrivalSpeed="13.00" duration="86.00" routeLength="146.91" waitingTime="68.00" waitingCount="1" stopTime="0.00" timeLoss="75.24" rerouteNo="0" devices="tripinfo_flow_5.1 emissions_flow_5.1 fcd_flow_5.1" vType="passenger" speedFactor="1.01" vaporized="">
        <emissions CO_abs="384.68" CO2_abs="174890.21" HC_abs="2.54" PMx_abs="4.28" NOx_abs="64.72" fuel_abs="56697.65" electricity_abs="0.00"/>
    </tripinfo>
    <tripinfo id="flow_18.1" depart="79352.00" departLane="29181613#4_0" departPos="4.60" departSpeed="1.11" departDelay="2.00" arrival="79436.00" arrivalLane="10873191#5_1" arrivalPos="21.02" arrivalSpeed="13.47" duration="84.00" routeLength="444.73" waitingTime="35.00" waitingCount="2" stopTime="0.00" timeLoss="51.83" rerouteNo="0" devices="tripinfo_flow_18.1 emissions_flow_18.1 fcd_flow_18.1" vType="passenger" speedFactor="1.09" vaporized="">
        <emissions CO_abs="804.67" CO2_abs="208448.98" HC_abs="5.34" PMx_abs="10.82" NOx_abs="71.93" fuel_abs="67576.46" electricity_abs="0.00"/>
    </tripinfo>
    <tripinfo id="flow_16.1" depart="79350.00" departLane="50211834#1_0" departPos="4.60" departSpeed="7.59" departDelay="0.00" arrival="79438.00" arrivalLane="10873193#2_0" arrivalPos="224.37" arrivalSpeed="13.52" duration="88.00" routeLength="575.24" waitingTime="31.00" waitingCount="3" stopTime="0.00" timeLoss="45.74" rerouteNo="0" devices="tripinfo_flow_16.1 emissions_flow_16.1 fcd_flow_16.1" vType="passenger" speedFactor="1.04" vaporized="">
        <emissions CO_abs="823.66" CO2_abs="205829.61" HC_abs="5.48" PMx_abs="13.41" NOx_abs="71.54" fuel_abs="66727.31" electricity_abs="0.00"/>
    </tripinfo>
    <tripinfo id="flow_1.1" depart="79350.00" departLane="690516091#0_1" departPos="4.60" departSpeed="8.28" departDelay="0.00" arrival="79444.00" arrivalLane="10873191#2_2" arrivalPos="39.21" arrivalSpeed="13.11" duration="94.00" routeLength="602.63" waitingTime="43.00" waitingCount="1" stopTime="0.00" timeLoss="49.76" rerouteNo="0" devices="tripinfo_flow_1.1 emissions_flow_1.1 fcd_flow_1.1" vType="passenger" speedFactor="1.13" vaporized="">
        <emissions CO_abs="781.72" CO2_abs="196051.95" HC_abs="5.21" PMx_abs="13.20" NOx_abs="71.50" fuel_abs="63557.84" electricity_abs="0.00"/>
    </tripinfo>
    <tripinfo id="microbus_24" depart="79360.00" departLane="690516091#1_1" departPos="6.10" departSpeed="6.50" departDelay="0.00" arrival="79449.00" arrivalLane="305873958#3-AddedOnRampEdge_0" arrivalPos="99.87" arrivalSpeed="10.57" duration="89.00" routeLength="440.84" waitingTime="25.00" waitingCount="5" stopTime="0.00" timeLoss="48.98" rerouteNo="0" devices="tripinfo_microbus_24 emissions_microbus_24 fcd_microbus_24" vType="microbus" speedFactor="0.83" vaporized="">
        <emissions CO_abs="476.91" CO2_abs="185926.44" HC_abs="3.16" PMx_abs="9.59" NOx_abs="63.07" fuel_abs="60274.90" electricity_abs="0.00"/>
    </tripinfo>
    <tripinfo id="microbus_21" depart="79249.00" departLane="28718647#2_0" departPos="3.34" departSpeed="9.02" departDelay="0.00" arrival="79451.00" arrivalLane="10873193#1_0" arrivalPos="132.82" arrivalSpeed="11.03" duration="202.00" routeLength="299.16" waitingTime="41.00" waitingCount="3" stopTime="112.00" timeLoss="61.93" rerouteNo="0" devices="tripinfo_microbus_21 emissions_microbus_21 fcd_microbus_21" vType="microbus" speedFactor="1.01" vaporized="">
        <emissions CO_abs="408.98" CO2_abs="350575.96" HC_abs="2.70" PMx_abs="6.32" NOx_abs="130.19" fuel_abs="113653.60" electricity_abs="0.00"/>
    </tripinfo>
    <tripinfo id="flow_17.1" depart="79350.00" departLane="690516091#1_1" departPos="4.60" departSpeed="12.89" departDelay="0.00" arrival="79451.00" arrivalLane="305873958#3-AddedOnRampEdge_0" arrivalPos="99.87" arrivalSpeed="13.48" duration="101.00" routeLength="442.34" waitingTime="43.00" waitingCount="3" stopTime="0.00" timeLoss="68.52" rerouteNo="0" devices="tripinfo_flow_17.1 emissions_flow_17.1 fcd_flow_17.1" vType="passenger" speedFactor="1.04" vaporized="">
        <emissions CO_abs="693.65" CO2_abs="213179.03" HC_abs="4.59" PMx_abs="9.38" NOx_abs="74.15" fuel_abs="69109.96" electricity_abs="0.00"/>
    </tripinfo>
    <tripinfo id="microbus_26" depart="79425.00" departLane="29181613#4_0" departPos="6.10" departSpeed="10.85" departDelay="0.00" arrival="79468.00" arrivalLane="10873191#5_2" arrivalPos="21.02" arrivalSpeed="9.82" duration="43.00" routeLength="443.23" waitingTime="0.00" waitingCount="0" stopTime="0.00" timeLoss="2.79" rerouteNo="0" devices="tripinfo_microbus_26 emissions_microbus_26 fcd_microbus_26" vType="microbus" speedFactor="0.92" vaporized="">
        <emissions CO_abs="294.80" CO2_abs="74302.32" HC_abs="1.98" PMx_abs="8.63" NOx_abs="26.10" fuel_abs="24088.00" electricity_abs="0.00"/>
    </tripinfo>