<?xml version="1.0" encoding="UTF-8"?>

<!-- generated on 2026-03-15 02:17:07 by Eclipse SUMO GUI Version 1.24.0
<sumoConfiguration xmlns:xsi="http://www.w3.org/2001/XMLSchema-instance" xsi:noNamespaceSchemaLocation="http://sumo.dlr.de/xsd/sumoConfiguration.xsd">

    <input>
        <net-file value="C:\Users\WIN\Documents\GitHub\sumoflow-ai-traffic-optimization\simulation\maps\tahrirupdated.net.xml"/>
        <route-files value="C:\Users\WIN\Documents\GitHub\sumoflow-ai-traffic-optimization\simulation\maps\routes_night.rou.xml"/>
        <additional-files value="C:\Users\WIN\Documents\GitHub\sumoflow-ai-traffic-optimization\simulation\maps\tahrir.add.xml"/>
    </input>

    <output>
        <emission-output value="C:\Users\WIN\Documents\GitHub\sumoflow-ai-traffic-optimization\simulation\maps\outputs/emission_night.xml"/>
        <fcd-output value="C:\Users\WIN\Documents\GitHub\sumoflow-ai-traffic-optimization\simulation\maps\outputs/fcd_night.xml"/>
        <summary-output value="C:\Users\WIN\Documents\GitHub\sumoflow-ai-traffic-optimization\simulation\maps\outputs/summary_night.xml"/>
        <tripinfo-output value="C:\Users\WIN\Documents\GitHub\sumoflow-ai-traffic-optimization\simulation\maps\outputs/tripinfo_night.xml"/>
    </output>

    <time>
        <begin value="79200"/>
        <end value="86400"/>
        <step-length value="1"/>
    </time>

    <processing>
        <ignore-route-errors value="true"/>
        <collision.action value="warn"/>
        <time-to-teleport value="300"/>
    </processing>

    <report>
        <verbose value="true"/>
        <no-warnings value="true"/>
        <no-step-log value="false"/>
    </report>

    <traci_server>
        <remote-port value="8813"/>
    </traci_server>

    <gui_only>
        <gui-settings-file value="C:\Users\WIN\Documents\GitHub\sumoflow-ai-traffic-optimization\simulation\maps\gui_settings.xml"/>
        <start value="true"/>
        <delay value="50"/>
        <window-size value="1920,1080"/>
        <window-pos value="0,0"/>
    </gui_only>

</sumoConfiguration>
-->

<tripinfos xmlns:xsi="http://www.w3.org/2001/XMLSchema-instance" xsi:noNamespaceSchemaLocation="http://sumo.dlr.de/xsd/tripinfo_file.xsd">
    <tripinfo id="flow_8.0" depart="79200.00" departLane="29181613#4_0" departPos="4.60" departSpeed="7.57" departDelay="0.00" arrival="79209.00" arrivalLane="192591565#1_0" arrivalPos="13.34" arrivalSpeed="12.97" duration="9.00" routeLength="94.73" waitingTime="0.00" waitingCount="0" stopTime="0.00" timeLoss="1.04" rerouteNo="0" devices="tripinfo_flow_8.0 emissions_flow_8.0 fcd_flow_8.0" vType="passenger" speedFactor="0.94" vaporized="">
        <emissions CO_abs="239.94" CO2_abs="36126.60" HC_abs="1.59" PMx_abs="3.09" NOx_abs="12.47" fuel_abs="11711.73" electricity_abs="0.00"/>
    </tripinfo>
    <tripinfo id="flow_18.0" depart="79201.00" departLane="29181613#4_0" departPos="4.60" departSpeed="6.35" departDelay="1.00" arrival="79210.00" arrivalLane="192591565#1_0" arrivalPos="13.34" arrivalSpeed="12.55" duration="9.00" routeLength="94.73" waitingTime="0.00" waitingCount="0" stopTime="0.00" timeLoss="1.90" rerouteNo="0" devices="tripinfo_flow_18.0 emissions_flow_18.0 fcd_flow_18.0" vType="taxi" speedFactor="0.94" vaporized="">
        <emissions CO_abs="196.39" CO2_abs="32504.16" HC_abs="1.30" PMx_abs="2.36" NOx_abs="10.92" fuel_abs="10537.37" electricity_abs="0.00"/>
    </tripinfo>
    <tripinfo id="flow_15.0" depart="79200.00" departLane="10873191#2_1" departPos="4.60" departSpeed="6.28" departDelay="0.00" arrival="79212.00" arrivalLane="10873191#5_1" arrivalPos="21.02" arrivalSpeed="13.26" duration="12.00" routeLength="146.91" waitingTime="0.00" waitingCount="0" stopTime="0.00" timeLoss="1.16" rerouteNo="0" devices="tripinfo_flow_15.0 emissions_flow_15.0 fcd_flow_15.0" vType="taxi" speedFactor="0.93" vaporized="">
        <emissions CO_abs="268.76" CO2_abs="41942.39" HC_abs="1.79" PMx_abs="3.94" NOx_abs="14.45" fuel_abs="13597.13" electricity_abs="0.00"/>
    </tripinfo>
    <tripinfo id="flow_28.0" depart="79203.00" departLane="29181613#4_0" departPos="6.10" departSpeed="7.03" departDelay="3.00" arrival="79213.00" arrivalLane="192591565#1_0" arrivalPos="13.34" arrivalSpeed="10.39" duration="10.00" routeLength="93.23" waitingTime="0.00" waitingCount="0" stopTime="0.00" timeLoss="1.26" rerouteNo="0" devices="tripinfo_flow_28.0 emissions_flow_28.0 fcd_flow_28.0" vType="microbus" speedFactor="1.13" vaporized="">
        <emissions CO_abs="113.86" CO2_abs="24931.14" HC_abs="0.76" PMx_abs="2.15" NOx_abs="8.28" fuel_abs="8082.34" electricity_abs="0.00"/>
    </tripinfo>
    <tripinfo id="flow_5.0" depart="79200.00" departLane="10873191#2_0" departPos="4.60" departSpeed="0.61" departDelay="0.00" arrival="79214.00" arrivalLane="10873191#5_0" arrivalPos="21.02" arrivalSpeed="13.80" duration="14.00" routeLength="146.91" waitingTime="0.00" waitingCount="0" stopTime="0.00" timeLoss="3.36" rerouteNo="0" devices="tripinfo_flow_5.0 emissions_flow_5.0 fcd_flow_5.0" vType="passenger" speedFactor="0.83" vaporized="">
        <emissions CO_abs="282.02" CO2_abs="52457.22" HC_abs="1.87" PMx_abs="3.87" NOx_abs="16.95" fuel_abs="17005.79" electricity_abs="0.00"/>
    </tripinfo>
    <tripinfo id="flow_6.0" depart="79200.00" departLane="29181613#1_2" departPos="4.60" departSpeed="10.32" departDelay="0.00" arrival="79214.00" arrivalLane="961982432#1_0" arrivalPos="15.37" arrivalSpeed="13.01" duration="14.00" routeLength="184.21" waitingTime="0.00" waitingCount="0" stopTime="0.00" timeLoss="0.60" rerouteNo="0" devices="tripinfo_flow_6.0 emissions_flow_6.0 fcd_flow_6.0" vType="passenger" speedFactor="1.05" vaporized="">
        <emissions CO_abs="251.56" CO2_abs="37013.77" HC_abs="1.68" PMx_abs="4.18" NOx_abs="13.25" fuel_abs="11999.39" electricity_abs="0.00"/>
    </tripinfo>
    <tripinfo id="flow_55.0" depart="79202.00" departLane="10873191#2_1" departPos="2.10" departSpeed="4.40" departDelay="2.00" arrival="79214.00" arrivalLane="10873191#5_1" arrivalPos="21.02" arrivalSpeed="15.96" duration="12.00" routeLength="149.41" waitingTime="0.00" waitingCount="0" stopTime="0.00" timeLoss="2.58" rerouteNo="0" devices="tripinfo_flow_55.0 emissions_flow_55.0 fcd_flow_55.0" vType="motorcycle" speedFactor="1.00" vaporized="">
        <emissions CO_abs="459.46" CO2_abs="58484.05" HC_abs="3.05" PMx_abs="4.42" NOx_abs="20.25" fuel_abs="18959.60" electricity_abs="0.00"/>
    </tripinfo>
    <tripinfo id="flow_16.0" depart="79200.00" departLane="29181613#1_4" departPos="4.60" departSpeed="7.87" departDelay="0.00" arrival="79215.00" arrivalLane="961982432#1_1" arrivalPos="15.37" arrivalSpeed="13.68" duration="15.00" routeLength="184.21" waitingTime="0.00" waitingCount="0" stopTime="0.00" timeLoss="1.10" rerouteNo="0" devices="tripinfo_flow_16.0 emissions_flow_16.0 fcd_flow_16.0" vType="taxi" speedFactor="0.88" vaporized="">
        <emissions CO_abs="318.53" CO2_abs="48065.40" HC_abs="2.12" PMx_abs="4.87" NOx_abs="16.86" fuel_abs="15582.15" electricity_abs="0.00"/>
    </tripinfo>
    <tripinfo id="flow_35.0" depart="79200.00" departLane="10873191#2_3" departPos="12.10" departSpeed="3.58" departDelay="0.00" arrival="79215.00" arrivalLane="10873191#5_3" arrivalPos="21.02" arrivalSpeed="10.99" duration="15.00" routeLength="139.41" waitingTime="0.00" waitingCount="0" stopTime="0.00" timeLoss="1.76" rerouteNo="0" devices="tripinfo_flow_35.0 emissions_flow_35.0 fcd_flow_35.0" vType="bus" speedFactor="1.02" vaporized="">
        <emissions CO_abs="176.20" CO2_abs="41747.21" HC_abs="1.17" PMx_abs="3.51" NOx_abs="13.68" fuel_abs="13533.87" electricity_abs="0.00"/>
    </tripinfo>
    <tripinfo id="flow_38.0" depart="79205.00" departLane="29181613#4_0" departPos="12.10" departSpeed="3.77" departDelay="5.00" arrival="79216.00" arrivalLane="192591565#1_0" arrivalPos="13.34" arrivalSpeed="10.61" duration="11.00" routeLength="87.23" waitingTime="0.00" waitingCount="0" stopTime="0.00" timeLoss="2.20" rerouteNo="0" devices="tripinfo_flow_38.0 emissions_flow_38.0 fcd_flow_38.0" vType="bus" speedFactor="1.10" vaporized="">
        <emissions CO_abs="144.31" CO2_abs="31462.26" HC_abs="0.95" PMx_abs="2.04" NOx_abs="9.84" fuel_abs="10199.57" electricity_abs="0.00"/>
    </tripinfo>
    <tripinfo id="flow_25.0" depart="79200.00" departLane="10873191#2_2" departPos="6.10" departSpeed="0.67" departDelay="0.00" arrival="79217.00" arrivalLane="10873191#5_2" arrivalPos="21.02" arrivalSpeed="10.30" duration="17.00" routeLength="145.41" waitingTime="0.00" waitingCount="0" stopTime="0.00" timeLoss="3.13" rerouteNo="0" devices="tripinfo_flow_25.0 emissions_flow_25.0 fcd_flow_25.0" vType="microbus" speedFactor="0.87" vaporized="">
        <emissions CO_abs="204.35" CO2_abs="48059.51" HC_abs="1.35" PMx_abs="3.23" NOx_abs="15.10" fuel_abs="15580.12" electricity_abs="0.00"/>
    </tripinfo>
    <tripinfo id="flow_45.0" depart="79202.00" departLane="10873191#2_3" departPos="8.10" departSpeed="4.57" departDelay="2.00" arrival="79217.00" arrivalLane="10873191#5_3" arrivalPos="21.02" arrivalSpeed="10.94" duration="15.00" routeLength="143.41" waitingTime="0.00" waitingCount="0" stopTime="0.00" timeLoss="1.92" rerouteNo="0" devices="tripinfo_flow_45.0 emissions_flow_45.0 fcd_flow_45.0" vType="truck" speedFactor="1.09" vaporized="">
        <emissions CO_abs="202.79" CO2_abs="41129.75" HC_abs="1.34" PMx_abs="2.98" NOx_abs="13.43" fuel_abs="13333.66" electricity_abs="0.00"/>
    </tripinfo>
    <tripinfo id="flow_48.0" depart="79208.00" departLane="29181613#4_0" departPos="8.10" departSpeed="6.15" departDelay="8.00" arrival="79218.00" arrivalLane="192591565#1_0" arrivalPos="13.34" arrivalSpeed="11.01" duration="10.00" routeLength="91.23" waitingTime="0.00" waitingCount="0" stopTime="0.00" timeLoss="1.32" rerouteNo="0" devices="tripinfo_flow_48.0 emissions_flow_48.0 fcd_flow_48.0" vType="truck" speedFactor="0.88" vaporized="">
        <emissions CO_abs="135.87" CO2_abs="27487.87" HC_abs="0.90" PMx_abs="2.06" NOx_abs="9.10" fuel_abs="8911.18" electricity_abs="0.00"/>
    </tripinfo>
    <tripinfo id="flow_26.0" depart="79201.00" departLane="29181613#1_2" departPos="6.10" departSpeed="6.05" departDelay="1.00" arrival="79219.00" arrivalLane="961982432#1_0" arrivalPos="15.37" arrivalSpeed="10.09" duration="18.00" routeLength="182.71" waitingTime="0.00" waitingCount="0" stopTime="0.00" timeLoss="1.33" rerouteNo="0" devices="tripinfo_flow_26.0 emissions_flow_26.0 fcd_flow_26.0" vType="microbus" speedFactor="0.92" vaporized="">
        <emissions CO_abs="171.71" CO2_abs="40352.66" HC_abs="1.14" PMx_abs="3.98" NOx_abs="13.69" fuel_abs="13081.83" electricity_abs="0.00"/>
    </tripinfo>
    <tripinfo id="flow_58.0" depart="79209.00" departLane="29181613#4_0" departPos="2.10" departSpeed="2.95" departDelay="9.00" arrival="79220.00" arrivalLane="192591565#1_0" arrivalPos="13.34" arrivalSpeed="15.28" duration="11.00" routeLength="97.23" waitingTime="0.00" waitingCount="0" stopTime="0.00" timeLoss="4.45" rerouteNo="0" devices="tripinfo_flow_58.0 emissions_flow_58.0 fcd_flow_58.0" vType="motorcycle" speedFactor="1.02" vaporized="">
        <emissions CO_abs="354.88" CO2_abs="52513.95" HC_abs="2.34" PMx_abs="3.22" NOx_abs="17.39" fuel_abs="17024.16" electricity_abs="0.00"/>
    </tripinfo>
    <tripinfo id="flow_36.0" depart="79202.00" departLane="29181613#1_4" departPos="12.10" departSpeed="1.39" departDelay="2.00" arrival="79221.00" arrivalLane="961982432#1_1" arrivalPos="15.37" arrivalSpeed="10.02" duration="19.00" routeLength="176.71" waitingTime="0.00" waitingCount="0" stopTime="0.00" timeLoss="2.29" rerouteNo="0" devices="tripinfo_flow_36.0 emissions_flow_36.0 fcd_flow_36.0" vType="bus" speedFactor="0.97" vaporized="">
        <emissions CO_abs="198.20" CO2_abs="48659.88" HC_abs="1.32" PMx_abs="4.06" NOx_abs="15.71" fuel_abs="15774.83" electricity_abs="0.00"/>
    </tripinfo>
    <tripinfo id="flow_46.0" depart="79203.00" departLane="29181613#1_2" departPos="8.10" departSpeed="8.33" departDelay="3.00" arrival="79221.00" arrivalLane="961982432#1_0" arrivalPos="15.37" arrivalSpeed="10.72" duration="18.00" routeLength="180.71" waitingTime="0.00" waitingCount="0" stopTime="0.00" timeLoss="1.64" rerouteNo="0" devices="tripinfo_flow_46.0 emissions_flow_46.0 fcd_flow_46.0" vType="truck" speedFactor="1.00" vaporized="">
        <emissions CO_abs="185.17" CO2_abs="36871.32" HC_abs="1.23" PMx_abs="3.20" NOx_abs="12.42" fuel_abs="11953.19" electricity_abs="0.00"/>
    </tripinfo>
    <tripinfo id="flow_56.0" depart="79204.00" departLane="29181613#1_4" departPos="2.10" departSpeed="0.46" departDelay="4.00" arrival="79223.00" arrivalLane="961982432#1_1" arrivalPos="15.37" arrivalSpeed="15.67" duration="19.00" routeLength="186.71" waitingTime="0.00" waitingCount="0" stopTime="0.00" timeLoss="6.85" rerouteNo="0" devices="tripinfo_flow_56.0 emissions_flow_56.0 fcd_flow_56.0" vType="motorcycle" speedFactor="0.90" vaporized="">
        <emissions CO_abs="506.86" CO2_abs="77514.97" HC_abs="3.35" PMx_abs="5.21" NOx_abs="25.82" fuel_abs="25129.09" electricity_abs="0.00"/>
    </tripinfo>
    <tripinfo id="flow_68.0" depart="79211.00" departLane="29181613#4_0" departPos="1.90" departSpeed="2.07" departDelay="11.00" arrival="79232.00" arrivalLane="192591565#1_0" arrivalPos="13.34" arrivalSpeed="5.39" duration="21.00" routeLength="97.43" waitingTime="0.00" waitingCount="0" stopTime="0.00" timeLoss="3.40" rerouteNo="0" devices="tripinfo_flow_68.0 emissions_flow_68.0 fcd_flow_68.0" vType="bicycle" speedFactor="1.04" vaporized="">
        <emissions CO_abs="39.47" CO2_abs="33414.35" HC_abs="0.26" PMx_abs="1.83" NOx_abs="10.79" fuel_abs="10832.48" electricity_abs="0.00"/>
    </tripinfo>
    <tripinfo id="flow_66.0" depart="79204.00" departLane="29181613#1_2" departPos="1.90" departSpeed="1.55" departDelay="4.00" arrival="79244.00" arrivalLane="961982432#1_0" arrivalPos="15.37" arrivalSpeed="5.45" duration="40.00" routeLength="186.91" waitingTime="0.00" waitingCount="0" stopTime="0.00" timeLoss="5.49" rerouteNo="0" devices="tripinfo_flow_66.0 emissions_flow_66.0 fcd_flow_66.0" vType="bicycle" speedFactor="0.91" vaporized="">
        <emissions CO_abs="52.16" CO2_abs="60074.55" HC_abs="0.35" PMx_abs="3.84" NOx_abs="20.50" fuel_abs="19475.49" electricity_abs="0.00"/>
    </tripinfo>
    <tripinfo id="flow_0.0" depart="79200.00" departLane="29181613#5_0" departPos="4.60" departSpeed="12.38" departDelay="0.00" arrival="79269.00" arrivalLane="10873191#0_0" arrivalPos="10.67" arrivalSpeed="12.89" duration="69.00" routeLength="257.44" waitingTime="38.00" waitingCount="1" stopTime="0.00" timeLoss="49.62" rerouteNo="0" devices="tripinfo_flow_0.0 emissions_flow_0.0 fcd_flow_0.0" vType="passenger" speedFactor="1.06" vaporized="">
        <emissions CO_abs="500.68" CO2_abs="151563.78" HC_abs="3.31" PMx_abs="5.73" NOx_abs="53.36" fuel_abs="49135.06" electricity_abs="0.00"/>
    </tripinfo>
    <tripinfo id="flow_3.0" depart="79200.00" departLane="-711671304_0" departPos="4.60" departSpeed="6.83" departDelay="0.00" arrival="79269.00" arrivalLane="10873193#0_0" arrivalPos="0.20" arrivalSpeed="12.04" duration="69.00" routeLength="183.60" waitingTime="42.00" waitingCount="1" stopTime="0.00" timeLoss="54.36" rerouteNo="0" devices="tripinfo_flow_3.0 emissions_flow_3.0 fcd_flow_3.0" vType="passenger" speedFactor="1.08" vaporized="">
        <emissions CO_abs="394.60" CO2_abs="152685.09" HC_abs="2.60" PMx_abs="4.86" NOx_abs="53.96" fuel_abs="49498.70" electricity_abs="0.00"/>
    </tripinfo>
    <tripinfo id="flow_2.0" depart="79200.00" departLane="28718647#2_1" departPos="3.34" departSpeed="0.63" departDelay="0.00" arrival="79271.00" arrivalLane="10873191#0_0" arrivalPos="10.67" arrivalSpeed="12.36" duration="71.00" routeLength="187.67" waitingTime="45.00" waitingCount="1" stopTime="0.00" timeLoss="56.77" rerouteNo="0" devices="tripinfo_flow_2.0 emissions_flow_2.0 fcd_flow_2.0" vType="passenger" speedFactor="1.01" vaporized="">
        <emissions CO_abs="507.54" CO2_abs="166509.25" HC_abs="3.35" PMx_abs="4.73" NOx_abs="57.88" fuel_abs="53980.23" electricity_abs="0.00"/>
    </tripinfo>
    <tripinfo id="flow_13.0" depart="79201.00" departLane="-711671304_0" departPos="4.60" departSpeed="5.79" departDelay="1.00" arrival="79271.00" arrivalLane="10873193#0_0" arrivalPos="0.20" arrivalSpeed="13.34" duration="70.00" routeLength="183.60" waitingTime="36.00" waitingCount="2" stopTime="0.00" timeLoss="55.21" rerouteNo="0" devices="tripinfo_flow_13.0 emissions_flow_13.0 fcd_flow_13.0" vType="taxi" speedFactor="1.12" vaporized="">
        <emissions CO_abs="333.70" CO2_abs="147496.20" HC_abs="2.20" PMx_abs="4.98" NOx_abs="51.74" fuel_abs="47816.57" electricity_abs="0.00"/>
    </tripinfo>
    <tripinfo id="flow_4.0" depart="79214.00" departLane="29181613#5_0" departPos="4.60" departSpeed="3.85" departDelay="14.00" arrival="79274.00" arrivalLane="28718874#1_0" arrivalPos="96.17" arrivalSpeed="12.76" duration="60.00" routeLength="327.92" waitingTime="19.00" waitingCount="1" stopTime="0.00" timeLoss="35.96" rerouteNo="0" devices="tripinfo_flow_4.0 emissions_flow_4.0 fcd_flow_4.0" vType="passenger" speedFactor="1.03" vaporized="">
        <emissions CO_abs="628.92" CO2_abs="156989.95" HC_abs="4.17" PMx_abs="8.16" NOx_abs="53.53" fuel_abs="50893.96" electricity_abs="0.00"/>
    </tripinfo>
    <tripinfo id="flow_23.0" depart="79203.00" departLane="-711671304_0" departPos="6.10" departSpeed="6.27" departDelay="3.00" arrival="79275.00" arrivalLane="10873193#0_0" arrivalPos="0.20" arrivalSpeed="9.93" duration="72.00" routeLength="182.10" waitingTime="36.00" waitingCount="1" stopTime="0.00" timeLoss="53.76" rerouteNo="0" devices="tripinfo_flow_23.0 emissions_flow_23.0 fcd_flow_23.0" vType="microbus" speedFactor="0.89" vaporized="">
        <emissions CO_abs="229.30" CO2_abs="138355.81" HC_abs="1.51" PMx_abs="4.00" NOx_abs="47.30" fuel_abs="44853.27" electricity_abs="0.00"/>
    </tripinfo>
    <tripinfo id="flow_20.0" depart="79224.00" departLane="29181613#5_0" departPos="6.10" departSpeed="3.21" departDelay="24.00" arrival="79276.00" arrivalLane="10873191#0_0" arrivalPos="10.67" arrivalSpeed="10.82" duration="52.00" routeLength="255.94" waitingTime="13.00" waitingCount="1" stopTime="0.00" timeLoss="28.35" rerouteNo="0" devices="tripinfo_flow_20.0 emissions_flow_20.0 fcd_flow_20.0" vType="microbus" speedFactor="1.02" vaporized="">
        <emissions CO_abs="375.24" CO2_abs="120169.92" HC_abs="2.48" PMx_abs="5.86" NOx_abs="39.51" fuel_abs="38957.42" electricity_abs="0.00"/>
    </tripinfo>
    <tripinfo id="flow_33.0" depart="79207.00" departLane="-711671304_0" departPos="12.10" departSpeed="4.70" departDelay="7.00" arrival="79277.00" arrivalLane="10873193#0_0" arrivalPos="0.20" arrivalSpeed="10.42" duration="70.00" routeLength="176.10" waitingTime="36.00" waitingCount="3" stopTime="0.00" timeLoss="53.33" rerouteNo="0" devices="tripinfo_flow_33.0 emissions_flow_33.0 fcd_flow_33.0" vType="bus" speedFactor="1.17" vaporized="">
        <emissions CO_abs="208.24" CO2_abs="131990.03" HC_abs="1.38" PMx_abs="3.54" NOx_abs="45.86" fuel_abs="42789.51" electricity_abs="0.00"/>
    </tripinfo>
    <tripinfo id="flow_10.0" depart="79218.00" departLane="29181613#5_0" departPos="4.60" departSpeed="2.29" departDelay="18.00" arrival="79278.00" arrivalLane="10873191#0_0" arrivalPos="10.67" arrivalSpeed="12.97" duration="60.00" routeLength="257.44" waitingTime="17.00" waitingCount="2" stopTime="0.00" timeLoss="40.85" rerouteNo="0" devices="tripinfo_flow_10.0 emissions_flow_10.0 fcd_flow_10.0" vType="taxi" speedFactor="1.09" vaporized="">
        <emissions CO_abs="506.56" CO2_abs="151107.86" HC_abs="3.35" PMx_abs="6.60" NOx_abs="50.06" fuel_abs="48986.82" electricity_abs="0.00"/>
    </tripinfo>
    <tripinfo id="flow_22.0" depart="79205.00" departLane="28718647#2_1" departPos="3.34" departSpeed="0.00" departDelay="5.00" arrival="79280.00" arrivalLane="10873191#0_0" arrivalPos="10.67" arrivalSpeed="10.45" duration="75.00" routeLength="187.67" waitingTime="40.00" waitingCount="2" stopTime="0.00" timeLoss="56.99" rerouteNo="0" devices="tripinfo_flow_22.0 emissions_flow_22.0 fcd_flow_22.0" vType="microbus" speedFactor="0.97" vaporized="">
        <emissions CO_abs="374.28" CO2_abs="165794.97" HC_abs="2.47" PMx_abs="4.77" NOx_abs="56.87" fuel_abs="53748.61" electricity_abs="0.00"/>
    </tripinfo>
    <tripinfo id="flow_14.0" depart="79221.00" departLane="29181613#5_0" departPos="4.60" departSpeed="2.49" departDelay="21.00" arrival="79281.00" arrivalLane="28718874#1_0" arrivalPos="96.17" arrivalSpeed="13.00" duration="60.00" routeLength="327.92" waitingTime="13.00" waitingCount="1" stopTime="0.00" timeLoss="35.47" rerouteNo="0" devices="tripinfo_flow_14.0 emissions_flow_14.0 fcd_flow_14.0" vType="taxi" speedFactor="0.99" vaporized="">
        <emissions CO_abs="588.33" CO2_abs="156054.54" HC_abs="3.90" PMx_abs="8.24" NOx_abs="51.69" fuel_abs="50590.57" electricity_abs="0.00"/>
    </tripinfo>
    <tripinfo id="flow_52.0" depart="79215.00" departLane="28718647#2_1" departPos="2.10" departSpeed="1.24" departDelay="15.00" arrival="79283.00" arrivalLane="10873191#0_0" arrivalPos="10.67" arrivalSpeed="12.29" duration="68.00" routeLength="188.91" waitingTime="30.00" waitingCount="1" stopTime="0.00" timeLoss="55.42" rerouteNo="0" devices="tripinfo_flow_52.0 emissions_flow_52.0 fcd_flow_52.0" vType="motorcycle" speedFactor="1.02" vaporized="">
        <emissions CO_abs="440.01" CO2_abs="159892.63" HC_abs="2.90" PMx_abs="4.77" NOx_abs="54.27" fuel_abs="51835.15" electricity_abs="0.00"/>
    </tripinfo>
    <tripinfo id="flow_30.0" depart="79231.00" departLane="29181613#5_0" departPos="12.10" departSpeed="1.27" departDelay="31.00" arrival="79286.00" arrivalLane="10873191#0_0" arrivalPos="10.67" arrivalSpeed="10.33" duration="55.00" routeLength="249.94" waitingTime="13.00" waitingCount="2" stopTime="0.00" timeLoss="32.25" rerouteNo="0" devices="tripinfo_flow_30.0 emissions_flow_30.0 fcd_flow_30.0" vType="bus" speedFactor="1.18" vaporized="">
        <emissions CO_abs="464.23" CO2_abs="142771.47" HC_abs="3.07" PMx_abs="6.36" NOx_abs="46.81" fuel_abs="46284.42" electricity_abs="0.00"/>
    </tripinfo>
    <tripinfo id="flow_63.0" depart="79214.00" departLane="-711671304_0" departPos="1.90" departSpeed="0.57" departDelay="14.00" arrival="79286.00" arrivalLane="10873193#0_0" arrivalPos="0.20" arrivalSpeed="5.51" duration="72.00" routeLength="190.88" waitingTime="23.00" waitingCount="2" stopTime="0.00" timeLoss="37.26" rerouteNo="0" devices="tripinfo_flow_63.0 emissions_flow_63.0 fcd_flow_63.0" vType="bicycle" speedFactor="0.99" vaporized="">
        <emissions CO_abs="76.24" CO2_abs="114253.68" HC_abs="0.50" PMx_abs="3.82" NOx_abs="40.04" fuel_abs="37039.81" electricity_abs="0.00"/>
    </tripinfo>
    <tripinfo id="flow_43.0" depart="79210.00" departLane="-711671304_0" departPos="8.10" departSpeed="4.36" departDelay="10.00" arrival="79288.00" arrivalLane="10873193#0_0" arrivalPos="0.20" arrivalSpeed="8.49" duration="78.00" routeLength="180.10" waitingTime="29.00" waitingCount="3" stopTime="0.00" timeLoss="59.99" rerouteNo="0" devices="tripinfo_flow_43.0 emissions_flow_43.0 fcd_flow_43.0" vType="truck" speedFactor="1.04" vaporized="">
        <emissions CO_abs="207.97" CO2_abs="156038.19" HC_abs="1.37" PMx_abs="4.36" NOx_abs="51.28" fuel_abs="50585.32" electricity_abs="0.00"/>
    </tripinfo>
    <tripinfo id="flow_40.0" depart="79256.00" departLane="29181613#5_0" departPos="8.10" departSpeed="6.31" departDelay="56.00" arrival="79290.00" arrivalLane="10873191#0_0" arrivalPos="10.67" arrivalSpeed="10.20" duration="34.00" routeLength="253.94" waitingTime="2.00" waitingCount="1" stopTime="0.00" timeLoss="11.01" rerouteNo="0" devices="tripinfo_flow_40.0 emissions_flow_40.0 fcd_flow_40.0" vType="truck" speedFactor="1.03" vaporized="">
        <emissions CO_abs="411.47" CO2_abs="96786.27" HC_abs="2.72" PMx_abs="5.78" NOx_abs="30.84" fuel_abs="31376.56" electricity_abs="0.00"/>
    </tripinfo>
    <tripinfo id="flow_53.0" depart="79212.00" departLane="-711671304_0" departPos="2.10" departSpeed="3.22" departDelay="12.00" arrival="79290.00" arrivalLane="10873193#0_0" arrivalPos="0.20" arrivalSpeed="11.63" duration="78.00" routeLength="186.10" waitingTime="25.00" waitingCount="4" stopTime="0.00" timeLoss="64.36" rerouteNo="0" devices="tripinfo_flow_53.0 emissions_flow_53.0 fcd_flow_53.0" vType="motorcycle" speedFactor="1.10" vaporized="">
        <emissions CO_abs="281.63" CO2_abs="154939.64" HC_abs="1.86" PMx_abs="4.19" NOx_abs="53.03" fuel_abs="50229.41" electricity_abs="0.00"/>
    </tripinfo>
    <tripinfo id="flow_8.1" depart="79286.00" departLane="29181613#4_0" departPos="4.60" departSpeed="4.20" departDelay="0.29" arrival="79296.00" arrivalLane="192591565#1_0" arrivalPos="13.34" arrivalSpeed="13.45" duration="10.00" routeLength="94.73" waitingTime="0.00" waitingCount="0" stopTime="0.00" timeLoss="2.69" rerouteNo="0" devices="tripinfo_flow_8.1 emissions_flow_8.1 fcd_flow_8.1" vType="passenger" speedFactor="1.01" vaporized="">
        <emissions CO_abs="207.91" CO2_abs="38528.87" HC_abs="1.38" PMx_abs="2.78" NOx_abs="12.72" fuel_abs="12490.48" electricity_abs="0.00"/>
    </tripinfo>
    <tripinfo id="flow_32.0" depart="79208.00" departLane="28718647#2_1" departPos="3.34" departSpeed="0.00" departDelay="8.00" arrival="79297.00" arrivalLane="10873191#0_0" arrivalPos="10.67" arrivalSpeed="10.69" duration="89.00" routeLength="187.67" waitingTime="53.00" waitingCount="4" stopTime="0.00" timeLoss="71.88" rerouteNo="0" devices="tripinfo_flow_32.0 emissions_flow_32.0 fcd_flow_32.0" vType="bus" speedFactor="1.01" vaporized="">
        <emissions CO_abs="360.51" CO2_abs="189120.84" HC_abs="2.38" PMx_abs="4.82" NOx_abs="65.96" fuel_abs="61310.62" electricity_abs="0.00"/>
    </tripinfo>
    <tripinfo id="flow_41.0" depart="79208.00" departLane="690516091#0_1" departPos="8.10" departSpeed="0.26" departDelay="8.00" arrival="79298.00" arrivalLane="10873191#2_2" arrivalPos="39.21" arrivalSpeed="10.72" duration="90.00" routeLength="599.13" waitingTime="6.00" waitingCount="2" stopTime="0.00" timeLoss="35.48" rerouteNo="0" devices="tripinfo_flow_41.0 emissions_flow_41.0 fcd_flow_41.0" vType="truck" speedFactor="0.96" vaporized="">
        <emissions CO_abs="698.65" CO2_abs="211518.74" HC_abs="4.63" PMx_abs="13.35" NOx_abs="68.32" fuel_abs="68571.23" electricity_abs="0.00"/>
    </tripinfo>
    <tripinfo id="flow_1.0" depart="79200.00" departLane="690516091#0_1" departPos="4.60" departSpeed="9.90" departDelay="0.00" arrival="79300.00" arrivalLane="10873191#2_2" arrivalPos="39.21" arrivalSpeed="12.78" duration="100.00" routeLength="602.63" waitingTime="33.00" waitingCount="6" stopTime="0.00" timeLoss="56.03" rerouteNo="0" devices="tripinfo_flow_1.0 emissions_flow_1.0 fcd_flow_1.0" vType="passenger" speedFactor="0.94" vaporized="">
        <emissions CO_abs="893.60" CO2_abs="234337.84" HC_abs="5.93" PMx_abs="13.01" NOx_abs="80.21" fuel_abs="75969.04" electricity_abs="0.00"/>
    </tripinfo>
    <tripinfo id="flow_44.0" depart="79258.00" departLane="29181613#5_0" departPos="8.10" departSpeed="4.94" departDelay="58.00" arrival="79300.00" arrivalLane="28718874#1_0" arrivalPos="96.17" arrivalSpeed="10.41" duration="42.00" routeLength="324.42" waitingTime="1.00" waitingCount="1" stopTime="0.00" timeLoss="11.91" rerouteNo="0" devices="tripinfo_flow_44.0 emissions_flow_44.0 fcd_flow_44.0" vType="truck" speedFactor="1.04" vaporized="">
        <emissions CO_abs="363.12" CO2_abs="97698.39" HC_abs="2.41" PMx_abs="6.91" NOx_abs="31.61" fuel_abs="31672.33" electricity_abs="0.00"/>
    </tripinfo>
    <tripinfo id="flow_6.1" depart="79286.00" departLane="29181613#1_2" departPos="4.60" departSpeed="3.67" departDelay="0.29" arrival="79302.00" arrivalLane="961982432#1_0" arrivalPos="15.37" arrivalSpeed="13.00" duration="16.00" routeLength="184.21" waitingTime="0.00" waitingCount="0" stopTime="0.00" timeLoss="1.88" rerouteNo="0" devices="tripinfo_flow_6.1 emissions_flow_6.1 fcd_flow_6.1" vType="passenger" speedFactor="1.03" vaporized="">
        <emissions CO_abs="294.14" CO2_abs="49935.56" HC_abs="1.96" PMx_abs="4.54" NOx_abs="16.78" fuel_abs="16188.39" electricity_abs="0.00"/>
    </tripinfo>
    <tripinfo id="flow_9.0" depart="79202.00" departLane="28718647#1_0" departPos="4.60" departSpeed="2.21" departDelay="2.00" arrival="79304.00" arrivalLane="10873193#0_0" arrivalPos="0.20" arrivalSpeed="9.64" duration="102.00" routeLength="623.86" waitingTime="43.00" waitingCount="2" stopTime="0.00" timeLoss="54.81" rerouteNo="0" devices="tripinfo_flow_9.0 emissions_flow_9.0 fcd_flow_9.0" vType="passenger" speedFactor="0.86" vaporized="">
        <emissions CO_abs="895.30" CO2_abs="228505.83" HC_abs="5.96" PMx_abs="14.04" NOx_abs="80.99" fuel_abs="74078.79" electricity_abs="0.00"/>
    </tripinfo>
    <tripinfo id="flow_54.0" depart="79261.00" departLane="29181613#5_0" departPos="2.10" departSpeed="0.94" departDelay="61.00" arrival="79304.00" arrivalLane="28718874#1_0" arrivalPos="96.17" arrivalSpeed="16.58" duration="43.00" routeLength="330.42" waitingTime="1.00" waitingCount="1" stopTime="0.00" timeLoss="22.84" rerouteNo="0" devices="tripinfo_flow_54.0 emissions_flow_54.0 fcd_flow_54.0" vType="motorcycle" speedFactor="1.00" vaporized="">
        <emissions CO_abs="716.53" CO2_abs="131514.23" HC_abs="4.75" PMx_abs="7.94" NOx_abs="42.77" fuel_abs="42634.74" electricity_abs="0.00"/>
    </tripinfo>
    <tripinfo id="flow_31.0" depart="79205.00" departLane="690516091#0_1" departPos="12.10" departSpeed="1.99" departDelay="5.00" arrival="79306.00" arrivalLane="10873191#2_2" arrivalPos="39.21" arrivalSpeed="10.67" duration="101.00" routeLength="595.13" waitingTime="21.00" waitingCount="2" stopTime="0.00" timeLoss="46.69" rerouteNo="0" devices="tripinfo_flow_31.0 emissions_flow_31.0 fcd_flow_31.0" vType="bus" speedFactor="1.15" vaporized="">