<?xml version="1.0" encoding="UTF-8"?>

<!-- generated on 2026-06-09 20:56:19 by Eclipse SUMO GUI Version 1.24.0
<sumoConfiguration xmlns:xsi="http://www.w3.org/2001/XMLSchema-instance" xsi:noNamespaceSchemaLocation="http://sumo.dlr.de/xsd/sumoConfiguration.xsd">

    <input>
        <net-file value="C:\Users\WIN\Documents\GitHub\sumoflow-ai-traffic-optimization\simulation\maps\tahrirupdated.net.xml"/>
        <route-files value="C:\Users\WIN\Documents\GitHub\sumoflow-ai-traffic-optimization\simulation\maps\routes_night.rou.xml"/>
        <additional-files value="C:\Users\WIN\Documents\GitHub\sumoflow-ai-traffic-optimization\simulation\maps\tahrir.add.xml,C:\Users\WIN\Documents\GitHub\sumoflow-ai-traffic-optimization\simulation\maps\vehtype.add.xml"/>
    </input>

    <output>
        <emission-output value="C:\Users\WIN\Documents\GitHub\sumoflow-ai-traffic-optimization\simulation\maps\outputs/emission_night.xml"/>
        <fcd-output value="C:\Users\WIN\Documents\GitHub\sumoflow-ai-traffic-optimization\simulation\maps\outputs/fcd_night.xml"/>
        <summary-output value="C:\Users\WIN\Documents\GitHub\sumoflow-ai-traffic-optimization\simulation\maps\outputs/summary_night.xml"/>
        <tripinfo-output value="C:\Users\WIN\Documents\GitHub\sumoflow-ai-traffic-optimization\simulation\maps\outputs/tripinfo_night.xml"/>
    </output>

    <time>
        <begin value="79200"/>
        <end value="86400"/>
        <step-length value="1"/>
    </time>

    <processing>
        <ignore-route-errors value="true"/>
        <collision.action value="warn"/>
        <time-to-teleport value="300"/>
    </processing>

    <report>
        <verbose value="true"/>
        <no-warnings value="true"/>
        <error-log value="NUL"/>
        <no-step-log value="true"/>
    </report>

    <traci_server>
        <remote-port value="8813"/>
    </traci_server>

    <gui_only>
        <gui-settings-file value="C:\Users\WIN\Documents\GitHub\sumoflow-ai-traffic-optimization\simulation\maps\gui_settings.xml"/>
        <start value="true"/>
        <delay value="50"/>
        <window-size value="1280,720"/>
    </gui_only>

</sumoConfiguration>
-->

<tripinfos xmlns:xsi="http://www.w3.org/2001/XMLSchema-instance" xsi:noNamespaceSchemaLocation="http://sumo.dlr.de/xsd/tripinfo_file.xsd">
    <tripinfo id="flow_8.0" depart="79200.00" departLane="29181613#4_0" departPos="4.60" departSpeed="7.57" departDelay="0.00" arrival="79209.00" arrivalLane="192591565#1_0" arrivalPos="13.34" arrivalSpeed="12.67" duration="9.00" routeLength="94.73" waitingTime="0.00" waitingCount="0" stopTime="0.00" timeLoss="1.32" rerouteNo="0" devices="tripinfo_flow_8.0 emissions_flow_8.0 fcd_flow_8.0" vType="passenger" speedFactor="0.86" vaporized="">
        <emissions CO_abs="273.03" CO2_abs="39443.19" HC_abs="1.80" PMx_abs="3.10" NOx_abs="13.56" fuel_abs="12786.90" electricity_abs="0.00"/>
    </tripinfo>
    <tripinfo id="flow_10.0" depart="79200.00" departLane="29181613#2_0" departPos="4.60" departSpeed="0.08" departDelay="0.00" arrival="79210.00" arrivalLane="29181613#5_0" arrivalPos="16.94" arrivalSpeed="12.70" duration="10.00" routeLength="74.34" waitingTime="0.00" waitingCount="0" stopTime="0.00" timeLoss="3.91" rerouteNo="0" devices="tripinfo_flow_10.0 emissions_flow_10.0 fcd_flow_10.0" vType="passenger" speedFactor="1.03" vaporized="">
        <emissions CO_abs="259.17" CO2_abs="48807.53" HC_abs="1.71" PMx_abs="2.57" NOx_abs="15.16" fuel_abs="15822.54" electricity_abs="0.00"/>
    </tripinfo>
    <tripinfo id="flow_5.0" depart="79200.00" departLane="10873191#2_0" departPos="4.60" departSpeed="0.61" departDelay="0.00" arrival="79214.00" arrivalLane="10873191#5_0" arrivalPos="21.02" arrivalSpeed="13.51" duration="14.00" routeLength="146.91" waitingTime="0.00" waitingCount="0" stopTime="0.00" timeLoss="3.36" rerouteNo="0" devices="tripinfo_flow_5.0 emissions_flow_5.0 fcd_flow_5.0" vType="passenger" speedFactor="1.05" vaporized="">
        <emissions CO_abs="269.00" CO2_abs="51193.80" HC_abs="1.79" PMx_abs="3.84" NOx_abs="16.52" fuel_abs="16596.21" electricity_abs="0.00"/>
    </tripinfo>
    <tripinfo id="flow_6.0" depart="79200.00" departLane="29181613#1_2" departPos="4.60" departSpeed="10.32" departDelay="0.00" arrival="79215.00" arrivalLane="961982432#1_0" arrivalPos="15.37" arrivalSpeed="13.26" duration="15.00" routeLength="184.21" waitingTime="0.00" waitingCount="0" stopTime="0.00" timeLoss="0.85" rerouteNo="0" devices="tripinfo_flow_6.0 emissions_flow_6.0 fcd_flow_6.0" vType="passenger" speedFactor="0.89" vaporized="">
        <emissions CO_abs="253.15" CO2_abs="38847.81" HC_abs="1.69" PMx_abs="4.47" NOx_abs="13.90" fuel_abs="12593.97" electricity_abs="0.00"/>
    </tripinfo>
    <tripinfo id="flow_19.0" depart="79203.00" departLane="-711671304_0" departPos="4.60" departSpeed="3.29" departDelay="3.00" arrival="79223.00" arrivalLane="138136500#1_0" arrivalPos="9.41" arrivalSpeed="12.63" duration="20.00" routeLength="196.36" waitingTime="0.00" waitingCount="0" stopTime="0.00" timeLoss="5.01" rerouteNo="0" devices="tripinfo_flow_19.0 emissions_flow_19.0 fcd_flow_19.0" vType="passenger" speedFactor="1.02" vaporized="">
        <emissions CO_abs="268.83" CO2_abs="56321.03" HC_abs="1.78" PMx_abs="4.58" NOx_abs="18.47" fuel_abs="18258.46" electricity_abs="0.00"/>
    </tripinfo>
    <tripinfo id="flow_11.0" depart="79200.00" departLane="50211834#0_0" departPos="4.60" departSpeed="9.35" departDelay="0.00" arrival="79226.00" arrivalLane="305873958#0_0" arrivalPos="17.01" arrivalSpeed="12.67" duration="26.00" routeLength="327.09" waitingTime="0.00" waitingCount="0" stopTime="0.00" timeLoss="1.70" rerouteNo="0" devices="tripinfo_flow_11.0 emissions_flow_11.0 fcd_flow_11.0" vType="passenger" speedFactor="1.05" vaporized="">
        <emissions CO_abs="407.15" CO2_abs="68636.01" HC_abs="2.73" PMx_abs="8.26" NOx_abs="24.37" fuel_abs="22250.96" electricity_abs="0.00"/>
    </tripinfo>
    <tripinfo id="flow_3.0" depart="79200.00" departLane="-711671304_0" departPos="4.60" departSpeed="6.83" departDelay="0.00" arrival="79271.00" arrivalLane="10873193#0_0" arrivalPos="0.20" arrivalSpeed="11.30" duration="71.00" routeLength="183.60" waitingTime="43.00" waitingCount="1" stopTime="0.00" timeLoss="55.99" rerouteNo="0" devices="tripinfo_flow_3.0 emissions_flow_3.0 fcd_flow_3.0" vType="passenger" speedFactor="1.03" vaporized="">
        <emissions CO_abs="363.84" CO2_abs="155017.03" HC_abs="2.40" PMx_abs="4.88" NOx_abs="54.51" fuel_abs="50254.70" electricity_abs="0.00"/>
    </tripinfo>
    <tripinfo id="flow_0.0" depart="79200.00" departLane="29181613#5_0" departPos="4.60" departSpeed="12.38" departDelay="0.00" arrival="79273.00" arrivalLane="10873191#0_0" arrivalPos="10.67" arrivalSpeed="13.55" duration="73.00" routeLength="257.44" waitingTime="39.00" waitingCount="2" stopTime="0.00" timeLoss="54.05" rerouteNo="0" devices="tripinfo_flow_0.0 emissions_flow_0.0 fcd_flow_0.0" vType="passenger" speedFactor="0.94" vaporized="">
        <emissions CO_abs="513.30" CO2_abs="166769.74" HC_abs="3.40" PMx_abs="6.28" NOx_abs="58.18" fuel_abs="54064.56" electricity_abs="0.00"/>
    </tripinfo>
    <tripinfo id="flow_17.0" depart="79200.00" departLane="690516091#1_1" departPos="4.60" departSpeed="0.84" departDelay="0.00" arrival="79273.00" arrivalLane="305873958#3-AddedOnRampEdge_0" arrivalPos="99.87" arrivalSpeed="13.62" duration="73.00" routeLength="442.34" waitingTime="28.00" waitingCount="1" stopTime="0.00" timeLoss="40.40" rerouteNo="0" devices="tripinfo_flow_17.0 emissions_flow_17.0 fcd_flow_17.0" vType="passenger" speedFactor="0.94" vaporized="">
        <emissions CO_abs="646.13" CO2_abs="170710.06" HC_abs="4.30" PMx_abs="10.74" NOx_abs="59.83" fuel_abs="55342.13" electricity_abs="0.00"/>
    </tripinfo>
    <tripinfo id="flow_2.0" depart="79200.00" departLane="28718647#2_1" departPos="3.34" departSpeed="0.63" departDelay="0.00" arrival="79276.00" arrivalLane="10873191#0_0" arrivalPos="10.67" arrivalSpeed="13.62" duration="76.00" routeLength="187.67" waitingTime="47.00" waitingCount="2" stopTime="0.00" timeLoss="61.85" rerouteNo="0" devices="tripinfo_flow_2.0 emissions_flow_2.0 fcd_flow_2.0" vType="passenger" speedFactor="1.08" vaporized="">
        <emissions CO_abs="454.91" CO2_abs="175479.45" HC_abs="3.00" PMx_abs="5.27" NOx_abs="60.84" fuel_abs="56888.21" electricity_abs="0.00"/>
    </tripinfo>
    <tripinfo id="flow_12.0" depart="79214.00" departLane="29181613#5_0" departPos="4.60" departSpeed="7.94" departDelay="14.00" arrival="79278.00" arrivalLane="192591565#2_0" arrivalPos="258.68" arrivalSpeed="13.66" duration="64.00" routeLength="337.01" waitingTime="30.00" waitingCount="2" stopTime="0.00" timeLoss="38.82" rerouteNo="0" devices="tripinfo_flow_12.0 emissions_flow_12.0 fcd_flow_12.0" vType="passenger" speedFactor="1.12" vaporized="">
        <emissions CO_abs="555.16" CO2_abs="144369.39" HC_abs="3.69" PMx_abs="8.35" NOx_abs="52.43" fuel_abs="46802.89" electricity_abs="0.00"/>
    </tripinfo>
    <tripinfo id="flow_15.0" depart="79201.00" departLane="-711671304_0" departPos="4.60" departSpeed="4.99" departDelay="1.00" arrival="79282.00" arrivalLane="305873957#0_0" arrivalPos="61.65" arrivalSpeed="13.40" duration="81.00" routeLength="262.14" waitingTime="39.00" waitingCount="1" stopTime="0.00" timeLoss="58.15" rerouteNo="0" devices="tripinfo_flow_15.0 emissions_flow_15.0 fcd_flow_15.0" vType="passenger" speedFactor="0.88" vaporized="">
        <emissions CO_abs="487.49" CO2_abs="177873.00" HC_abs="3.22" PMx_abs="6.35" NOx_abs="61.03" fuel_abs="57664.14" electricity_abs="0.00"/>
    </tripinfo>
    <tripinfo id="flow_4.0" depart="79205.00" departLane="29181613#5_0" departPos="4.60" departSpeed="2.21" departDelay="5.00" arrival="79285.00" arrivalLane="28718874#1_0" arrivalPos="96.17" arrivalSpeed="13.79" duration="80.00" routeLength="327.92" waitingTime="34.00" waitingCount="4" stopTime="0.00" timeLoss="55.49" rerouteNo="0" devices="tripinfo_flow_4.0 emissions_flow_4.0 fcd_flow_4.0" vType="passenger" speedFactor="0.83" vaporized="">
        <emissions CO_abs="670.74" CO2_abs="194882.02" HC_abs="4.44" PMx_abs="8.24" NOx_abs="67.07" fuel_abs="63177.99" electricity_abs="0.00"/>
    </tripinfo>
    <tripinfo id="flow_1.0" depart="79200.00" departLane="690516091#0_1" departPos="4.60" departSpeed="9.90" departDelay="0.00" arrival="79286.00" arrivalLane="10873191#2_2" arrivalPos="39.21" arrivalSpeed="12.94" duration="86.00" routeLength="602.63" waitingTime="20.00" waitingCount="3" stopTime="0.00" timeLoss="42.08" rerouteNo="0" devices="tripinfo_flow_1.0 emissions_flow_1.0 fcd_flow_1.0" vType="passenger" speedFactor="1.01" vaporized="">
        <emissions CO_abs="933.06" CO2_abs="218939.15" HC_abs="6.20" PMx_abs="13.90" NOx_abs="73.82" fuel_abs="70976.88" electricity_abs="0.00"/>
    </tripinfo>
    <tripinfo id="flow_14.0" depart="79200.00" departLane="28718647#2_0" departPos="3.34" departSpeed="6.28" departDelay="0.00" arrival="79291.00" arrivalLane="10873193#1_0" arrivalPos="132.82" arrivalSpeed="13.31" duration="91.00" routeLength="298.08" waitingTime="49.00" waitingCount="3" stopTime="0.00" timeLoss="68.05" rerouteNo="0" devices="tripinfo_flow_14.0 emissions_flow_14.0 fcd_flow_14.0" vType="passenger" speedFactor="0.93" vaporized="">
        <emissions CO_abs="461.43" CO2_abs="183267.61" HC_abs="3.06" PMx_abs="6.59" NOx_abs="64.89" fuel_abs="59413.18" electricity_abs="0.00"/>
    </tripinfo>
    <tripinfo id="flow_16.0" depart="79200.00" departLane="50211834#1_0" departPos="4.60" departSpeed="3.67" departDelay="0.00" arrival="79298.00" arrivalLane="10873193#2_0" arrivalPos="224.37" arrivalSpeed="12.67" duration="98.00" routeLength="575.24" waitingTime="45.00" waitingCount="1" stopTime="0.00" timeLoss="55.53" rerouteNo="0" devices="tripinfo_flow_16.0 emissions_flow_16.0 fcd_flow_16.0" vType="passenger" speedFactor="0.94" vaporized="">
        <emissions CO_abs="737.77" CO2_abs="206509.05" HC_abs="4.91" PMx_abs="12.44" NOx_abs="73.62" fuel_abs="66947.80" electricity_abs="0.00"/>
    </tripinfo>
    <tripinfo id="flow_18.0" depart="79201.00" departLane="29181613#4_0" departPos="4.60" departSpeed="4.27" departDelay="1.00" arrival="79307.00" arrivalLane="10873191#5_0" arrivalPos="21.02" arrivalSpeed="13.43" duration="106.00" routeLength="444.73" waitingTime="44.00" waitingCount="3" stopTime="0.00" timeLoss="73.08" rerouteNo="0" devices="tripinfo_flow_18.0 emissions_flow_18.0 fcd_flow_18.0" vType="passenger" speedFactor="1.16" vaporized="">
        <emissions CO_abs="880.35" CO2_abs="249289.49" HC_abs="5.82" PMx_abs="10.31" NOx_abs="85.41" fuel_abs="80816.36" electricity_abs="0.00"/>
    </tripinfo>
    <tripinfo id="flow_9.0" depart="79202.00" departLane="28718647#1_0" departPos="4.60" departSpeed="6.42" departDelay="2.00" arrival="79312.00" arrivalLane="10873193#0_0" arrivalPos="0.20" arrivalSpeed="12.32" duration="110.00" routeLength="623.86" waitingTime="49.00" waitingCount="2" stopTime="0.00" timeLoss="63.88" rerouteNo="0" devices="tripinfo_flow_9.0 emissions_flow_9.0 fcd_flow_9.0" vType="passenger" speedFactor="1.09" vaporized="">
        <emissions CO_abs="942.54" CO2_abs="242873.68" HC_abs="6.27" PMx_abs="13.83" NOx_abs="86.49" fuel_abs="78736.72" electricity_abs="0.00"/>
    </tripinfo>
    <tripinfo id="microbus_23" depart="79305.00" departLane="29181613#2_0" departPos="12.10" departSpeed="0.99" departDelay="0.00" arrival="79317.00" arrivalLane="29181613#5_0" arrivalPos="16.94" arrivalSpeed="11.02" duration="12.00" routeLength="66.84" waitingTime="0.00" waitingCount="0" stopTime="0.00" timeLoss="5.42" rerouteNo="0" devices="tripinfo_microbus_23 emissions_microbus_23 fcd_microbus_23" vType="type_bus" speedFactor="1.00" vaporized="">
        <emissions CO_abs="45.37" CO2_abs="212453.14" HC_abs="3.25" PMx_abs="19.52" NOx_abs="63.29" fuel_abs="68276.37" electricity_abs="0.00"/>
    </tripinfo>
</tripinfos>
