<?xml version="1.0" encoding="UTF-8"?>

<!-- generated on 2026-02-20 22:18:43 by Eclipse SUMO GUI Version 1.24.0
<sumoConfiguration xmlns:xsi="http://www.w3.org/2001/XMLSchema-instance" xsi:noNamespaceSchemaLocation="http://sumo.dlr.de/xsd/sumoConfiguration.xsd">

    <input>
        <net-file value="tahrirupdated.net.xml"/>
        <route-files value="od_route_tahrir.odtrips.rou.xml"/>
        <additional-files value="tahrir.add.xml"/>
    </input>

    <output>
        <emission-output value="outputs/emission.xml"/>
        <fcd-output value="outputs/fcd.xml"/>
        <summary-output value="outputs/summary.xml"/>
        <tripinfo-output value="outputs/tripinfo.xml"/>
    </output>

    <time>
        <begin value="0"/>
        <end value="3600"/>
    </time>

    <report>
        <verbose value="true"/>
        <no-step-log value="false"/>
    </report>

    <ssm_device>
        <device.ssm.probability value="1.0"/>
        <device.ssm.measures value="TTC DRAC PET"/>
        <device.ssm.thresholds value="3.0 3.0 2.0"/>
        <device.ssm.trajectories value="true"/>
        <device.ssm.range value="50.0"/>
        <device.ssm.extratime value="5.0"/>
        <device.ssm.file value="outputs/ssm.xml"/>
    </ssm_device>

</sumoConfiguration>
-->

<tripinfos xmlns:xsi="http://www.w3.org/2001/XMLSchema-instance" xsi:noNamespaceSchemaLocation="http://sumo.dlr.de/xsd/tripinfo_file.xsd">
    <tripinfo id="746" depart="19.00" departLane="29181613#1_0" departPos="5.10" departSpeed="26.05" departDelay="0.03" arrival="43.00" arrivalLane="192591565#2_0" arrivalPos="258.68" arrivalSpeed="25.44" duration="24.00" routeLength="523.09" waitingTime="0.00" waitingCount="0" stopTime="0.00" timeLoss="3.06" rerouteNo="0" devices="tripinfo_746 emissions_746 ssm_746 fcd_746" vType="DEFAULT_VEHTYPE" speedFactor="0.94" vaporized="">
        <emissions CO_abs="1833.82" CO2_abs="128466.56" HC_abs="12.27" PMx_abs="13.31" NOx_abs="52.30" fuel_abs="41646.58" electricity_abs="0.00"/>
    </tripinfo>
    <tripinfo id="244" depart="12.00" departLane="28718647#1_0" departPos="5.10" departSpeed="24.06" departDelay="0.88" arrival="51.00" arrivalLane="305873958#3-AddedOnRampEdge_2" arrivalPos="99.87" arrivalSpeed="23.30" duration="39.00" routeLength="775.35" waitingTime="0.00" waitingCount="0" stopTime="0.00" timeLoss="6.55" rerouteNo="0" devices="tripinfo_244 emissions_244 ssm_244 fcd_244" vType="DEFAULT_VEHTYPE" speedFactor="1.08" vaporized="">
        <emissions CO_abs="2147.57" CO2_abs="173306.92" HC_abs="14.43" PMx_abs="19.93" NOx_abs="67.55" fuel_abs="56183.29" electricity_abs="0.00"/>
    </tripinfo>
    <tripinfo id="282" depart="3.00" departLane="28718647#1_0" departPos="5.10" departSpeed="23.55" departDelay="0.17" arrival="53.00" arrivalLane="192591565#2_0" arrivalPos="258.68" arrivalSpeed="28.19" duration="50.00" routeLength="1006.64" waitingTime="0.00" waitingCount="0" stopTime="0.00" timeLoss="9.93" rerouteNo="0" devices="tripinfo_282 emissions_282 ssm_282 fcd_282" vType="DEFAULT_VEHTYPE" speedFactor="1.06" vaporized="">
        <emissions CO_abs="3612.81" CO2_abs="265292.63" HC_abs="24.16" PMx_abs="27.77" NOx_abs="106.98" fuel_abs="86003.23" electricity_abs="0.00"/>
    </tripinfo>
    <tripinfo id="87" depart="17.00" departLane="28718647#1_0" departPos="5.10" departSpeed="23.24" departDelay="0.28" arrival="58.00" arrivalLane="305873958#3-AddedOnRampEdge_2" arrivalPos="99.87" arrivalSpeed="22.07" duration="41.00" routeLength="775.35" waitingTime="0.00" waitingCount="0" stopTime="0.00" timeLoss="6.89" rerouteNo="0" devices="tripinfo_87 emissions_87 ssm_87 fcd_87" vType="DEFAULT_VEHTYPE" speedFactor="1.05" vaporized="">
        <emissions CO_abs="1981.78" CO2_abs="166791.03" HC_abs="13.31" PMx_abs="18.96" NOx_abs="64.30" fuel_abs="54070.96" electricity_abs="0.00"/>
    </tripinfo>
    <tripinfo id="1394" depart="23.00" departLane="690516091#0_0" departPos="5.10" departSpeed="28.51" departDelay="0.18" arrival="66.00" arrivalLane="305873958#3-AddedOnRampEdge_3" arrivalPos="99.87" arrivalSpeed="22.54" duration="43.00" routeLength="654.28" waitingTime="3.00" waitingCount="1" stopTime="0.00" timeLoss="16.28" rerouteNo="0" devices="tripinfo_1394 emissions_1394 ssm_1394 fcd_1394" vType="DEFAULT_VEHTYPE" speedFactor="1.03" vaporized="">
        <emissions CO_abs="2036.76" CO2_abs="189125.92" HC_abs="13.64" PMx_abs="16.64" NOx_abs="70.78" fuel_abs="61311.56" electricity_abs="0.00"/>
    </tripinfo>
    <tripinfo id="1384" depart="33.00" departLane="690516091#0_0" departPos="5.10" departSpeed="26.15" departDelay="0.86" arrival="71.00" arrivalLane="305873958#3-AddedOnRampEdge_3" arrivalPos="99.87" arrivalSpeed="20.30" duration="38.00" routeLength="654.28" waitingTime="0.00" waitingCount="0" stopTime="0.00" timeLoss="8.84" rerouteNo="0" devices="tripinfo_1384 emissions_1384 ssm_1384 fcd_1384" vType="DEFAULT_VEHTYPE" speedFactor="0.94" vaporized="">
        <emissions CO_abs="1664.40" CO2_abs="154775.25" HC_abs="11.17" PMx_abs="15.85" NOx_abs="57.77" fuel_abs="50175.72" electricity_abs="0.00"/>
    </tripinfo>
    <tripinfo id="769" depart="48.00" departLane="29181613#1_1" departPos="5.10" departSpeed="24.24" departDelay="0.05" arrival="76.00" arrivalLane="305873958#3-AddedOnRampEdge_0" arrivalPos="99.87" arrivalSpeed="18.75" duration="28.00" routeLength="477.81" waitingTime="0.00" waitingCount="0" stopTime="0.00" timeLoss="3.72" rerouteNo="0" devices="tripinfo_769 emissions_769 ssm_769 fcd_769" vType="DEFAULT_VEHTYPE" speedFactor="0.87" vaporized="">
        <emissions CO_abs="1023.38" CO2_abs="97941.83" HC_abs="6.86" PMx_abs="11.41" NOx_abs="37.22" fuel_abs="31751.29" electricity_abs="0.00"/>
    </tripinfo>
    <tripinfo id="1578" depart="15.00" departLane="50211834#0_0" departPos="5.10" departSpeed="28.62" departDelay="0.93" arrival="78.00" arrivalLane="10873193#2_0" arrivalPos="224.37" arrivalSpeed="21.91" duration="63.00" routeLength="825.23" waitingTime="14.00" waitingCount="2" stopTime="0.00" timeLoss="28.18" rerouteNo="0" devices="tripinfo_1578 emissions_1578 ssm_1578 fcd_1578" vType="DEFAULT_VEHTYPE" speedFactor="1.03" vaporized="">
        <emissions CO_abs="2257.01" CO2_abs="224093.48" HC_abs="15.10" PMx_abs="19.21" NOx_abs="85.85" fuel_abs="72647.62" electricity_abs="0.00"/>
    </tripinfo>
    <tripinfo id="1286" depart="37.00" departLane="690516091#0_0" departPos="5.10" departSpeed="32.17" departDelay="0.65" arrival="80.00" arrivalLane="305873958#3-AddedOnRampEdge_3" arrivalPos="99.87" arrivalSpeed="23.09" duration="43.00" routeLength="654.28" waitingTime="3.00" waitingCount="1" stopTime="0.00" timeLoss="19.18" rerouteNo="0" devices="tripinfo_1286 emissions_1286 ssm_1286 fcd_1286" vType="DEFAULT_VEHTYPE" speedFactor="1.16" vaporized="">
        <emissions CO_abs="1898.82" CO2_abs="171771.16" HC_abs="12.69" PMx_abs="13.85" NOx_abs="65.21" fuel_abs="55685.26" electricity_abs="0.00"/>
    </tripinfo>
    <tripinfo id="1596" depart="22.00" departLane="50211834#0_0" departPos="5.10" departSpeed="30.30" departDelay="0.24" arrival="81.00" arrivalLane="10873193#2_0" arrivalPos="224.37" arrivalSpeed="23.83" duration="59.00" routeLength="825.23" waitingTime="6.00" waitingCount="2" stopTime="0.00" timeLoss="25.59" rerouteNo="0" devices="tripinfo_1596 emissions_1596 ssm_1596 fcd_1596" vType="DEFAULT_VEHTYPE" speedFactor="1.09" vaporized="">
        <emissions CO_abs="2424.91" CO2_abs="232131.03" HC_abs="16.31" PMx_abs="22.33" NOx_abs="86.94" fuel_abs="75253.03" electricity_abs="0.00"/>
    </tripinfo>
    <tripinfo id="411" depart="20.00" departLane="29181613#1_1" departPos="5.10" departSpeed="23.80" departDelay="0.39" arrival="88.00" arrivalLane="10873193#2_0" arrivalPos="224.37" arrivalSpeed="18.20" duration="68.00" routeLength="791.06" waitingTime="10.00" waitingCount="1" stopTime="0.00" timeLoss="27.48" rerouteNo="0" devices="tripinfo_411 emissions_411 ssm_411 fcd_411" vType="DEFAULT_VEHTYPE" speedFactor="0.86" vaporized="">
        <emissions CO_abs="1712.12" CO2_abs="210032.48" HC_abs="11.44" PMx_abs="18.87" NOx_abs="76.59" fuel_abs="68089.44" electricity_abs="0.00"/>
    </tripinfo>
    <tripinfo id="390" depart="24.00" departLane="29181613#1_0" departPos="5.10" departSpeed="29.09" departDelay="0.95" arrival="89.00" arrivalLane="10873193#2_0" arrivalPos="224.37" arrivalSpeed="20.38" duration="65.00" routeLength="791.06" waitingTime="8.00" waitingCount="1" stopTime="0.00" timeLoss="31.83" rerouteNo="0" devices="tripinfo_390 emissions_390 ssm_390 fcd_390" vType="DEFAULT_VEHTYPE" speedFactor="1.05" vaporized="">
        <emissions CO_abs="1749.86" CO2_abs="210372.00" HC_abs="11.70" PMx_abs="17.56" NOx_abs="75.82" fuel_abs="68199.43" electricity_abs="0.00"/>
    </tripinfo>
    <tripinfo id="1425" depart="25.00" departLane="50211834#0_0" departPos="5.10" departSpeed="27.54" departDelay="0.56" arrival="91.00" arrivalLane="10873193#2_0" arrivalPos="224.37" arrivalSpeed="21.30" duration="66.00" routeLength="822.42" waitingTime="7.00" waitingCount="3" stopTime="0.00" timeLoss="29.10" rerouteNo="0" devices="tripinfo_1425 emissions_1425 ssm_1425 fcd_1425" vType="DEFAULT_VEHTYPE" speedFactor="0.99" vaporized="">
        <emissions CO_abs="2163.39" CO2_abs="235001.29" HC_abs="14.49" PMx_abs="20.89" NOx_abs="86.70" fuel_abs="76183.66" electricity_abs="0.00"/>
    </tripinfo>
    <tripinfo id="594" depart="71.00" departLane="29181613#1_0" departPos="5.10" departSpeed="30.62" departDelay="0.28" arrival="93.00" arrivalLane="192591565#2_0" arrivalPos="258.68" arrivalSpeed="30.11" duration="22.00" routeLength="523.09" waitingTime="0.00" waitingCount="0" stopTime="0.00" timeLoss="3.20" rerouteNo="0" devices="tripinfo_594 emissions_594 ssm_594 fcd_594" vType="DEFAULT_VEHTYPE" speedFactor="1.10" vaporized="">
        <emissions CO_abs="2617.54" CO2_abs="162348.45" HC_abs="17.59" PMx_abs="17.93" NOx_abs="68.40" fuel_abs="52630.39" electricity_abs="0.00"/>
    </tripinfo>
    <tripinfo id="1324" depart="56.00" departLane="690516091#0_0" departPos="5.10" departSpeed="25.87" departDelay="0.61" arrival="94.00" arrivalLane="305873958#3-AddedOnRampEdge_3" arrivalPos="99.87" arrivalSpeed="20.06" duration="38.00" routeLength="654.28" waitingTime="0.00" waitingCount="0" stopTime="0.00" timeLoss="8.58" rerouteNo="0" devices="tripinfo_1324 emissions_1324 ssm_1324 fcd_1324" vType="DEFAULT_VEHTYPE" speedFactor="0.93" vaporized="">
        <emissions CO_abs="1798.38" CO2_abs="158078.99" HC_abs="12.04" PMx_abs="15.62" NOx_abs="59.73" fuel_abs="51246.63" electricity_abs="0.00"/>
    </tripinfo>
    <tripinfo id="708" depart="77.00" departLane="29181613#1_0" departPos="5.10" departSpeed="28.62" departDelay="0.95" arrival="100.00" arrivalLane="305873958#3-AddedOnRampEdge_0" arrivalPos="99.87" arrivalSpeed="22.54" duration="23.00" routeLength="477.81" waitingTime="0.00" waitingCount="0" stopTime="0.00" timeLoss="2.54" rerouteNo="0" devices="tripinfo_708 emissions_708 ssm_708 fcd_708" vType="DEFAULT_VEHTYPE" speedFactor="1.03" vaporized="">
        <emissions CO_abs="1451.64" CO2_abs="107213.17" HC_abs="9.73" PMx_abs="11.82" NOx_abs="43.16" fuel_abs="34756.70" electricity_abs="0.00"/>
    </tripinfo>
    <tripinfo id="518" depart="5.00" departLane="29181613#1_0" departPos="5.10" departSpeed="26.07" departDelay="0.23" arrival="105.00" arrivalLane="10873193#2_0" arrivalPos="224.37" arrivalSpeed="19.83" duration="100.00" routeLength="791.06" waitingTime="33.00" waitingCount="4" stopTime="0.00" timeLoss="64.18" rerouteNo="0" devices="tripinfo_518 emissions_518 ssm_518 fcd_518" vType="DEFAULT_VEHTYPE" speedFactor="0.94" vaporized="">
        <emissions CO_abs="2216.19" CO2_abs="312585.95" HC_abs="14.81" PMx_abs="21.40" NOx_abs="112.65" fuel_abs="101335.73" electricity_abs="0.00"/>
    </tripinfo>
    <tripinfo id="569" depart="47.00" departLane="29181613#1_0" departPos="5.10" departSpeed="22.94" departDelay="0.10" arrival="105.00" arrivalLane="10873193#2_2" arrivalPos="224.37" arrivalSpeed="18.08" duration="58.00" routeLength="791.06" waitingTime="0.00" waitingCount="0" stopTime="0.00" timeLoss="15.81" rerouteNo="0" devices="tripinfo_569 emissions_569 ssm_569 fcd_569" vType="DEFAULT_VEHTYPE" speedFactor="0.83" vaporized="">
        <emissions CO_abs="1727.68" CO2_abs="194369.25" HC_abs="11.51" PMx_abs="17.23" NOx_abs="69.96" fuel_abs="63011.44" electricity_abs="0.00"/>
    </tripinfo>
    <tripinfo id="525" depart="38.00" departLane="29181613#1_0" departPos="5.10" departSpeed="28.06" departDelay="0.30" arrival="106.00" arrivalLane="10873193#2_1" arrivalPos="224.37" arrivalSpeed="18.92" duration="68.00" routeLength="791.06" waitingTime="4.00" waitingCount="3" stopTime="0.00" timeLoss="34.43" rerouteNo="0" devices="tripinfo_525 emissions_525 ssm_525 fcd_525" vType="DEFAULT_VEHTYPE" speedFactor="1.01" vaporized="">
        <emissions CO_abs="2234.99" CO2_abs="251787.22" HC_abs="14.83" PMx_abs="17.49" NOx_abs="91.18" fuel_abs="81625.15" electricity_abs="0.00"/>
    </tripinfo>
    <tripinfo id="904" depart="93.00" departLane="29181613#1_0" departPos="5.10" departSpeed="30.22" departDelay="0.49" arrival="115.00" arrivalLane="192591565#2_0" arrivalPos="258.68" arrivalSpeed="30.11" duration="22.00" routeLength="523.09" waitingTime="0.00" waitingCount="0" stopTime="0.00" timeLoss="3.78" rerouteNo="0" devices="tripinfo_904 emissions_904 ssm_904 fcd_904" vType="DEFAULT_VEHTYPE" speedFactor="1.09" vaporized="">
        <emissions CO_abs="2606.01" CO2_abs="159609.91" HC_abs="17.40" PMx_abs="15.16" NOx_abs="67.96" fuel_abs="51742.39" electricity_abs="0.00"/>
    </tripinfo>
    <tripinfo id="110" depart="82.00" departLane="28718647#1_0" departPos="5.10" departSpeed="24.26" departDelay="0.37" arrival="121.00" arrivalLane="305873958#3-AddedOnRampEdge_2" arrivalPos="99.87" arrivalSpeed="23.53" duration="39.00" routeLength="775.35" waitingTime="0.00" waitingCount="0" stopTime="0.00" timeLoss="6.68" rerouteNo="0" devices="tripinfo_110 emissions_110 ssm_110 fcd_110" vType="DEFAULT_VEHTYPE" speedFactor="1.09" vaporized="">
        <emissions CO_abs="2218.54" CO2_abs="176299.16" HC_abs="14.89" PMx_abs="19.62" NOx_abs="68.85" fuel_abs="57153.26" electricity_abs="0.00"/>
    </tripinfo>
    <tripinfo id="912" depart="96.00" departLane="29181613#1_0" departPos="5.10" departSpeed="25.02" departDelay="0.10" arrival="122.00" arrivalLane="192591565#2_0" arrivalPos="258.68" arrivalSpeed="23.72" duration="26.00" routeLength="523.09" waitingTime="0.00" waitingCount="0" stopTime="0.00" timeLoss="3.38" rerouteNo="0" devices="tripinfo_912 emissions_912 ssm_912 fcd_912" vType="DEFAULT_VEHTYPE" speedFactor="0.90" vaporized="">
        <emissions CO_abs="1801.00" CO2_abs="133393.01" HC_abs="12.06" PMx_abs="14.41" NOx_abs="53.62" fuel_abs="43243.74" electricity_abs="0.00"/>
    </tripinfo>
    <tripinfo id="1413" depart="45.00" departLane="50211834#0_0" departPos="5.10" departSpeed="24.71" departDelay="0.01" arrival="131.00" arrivalLane="10873193#2_0" arrivalPos="224.37" arrivalSpeed="19.30" duration="86.00" routeLength="822.42" waitingTime="32.00" waitingCount="2" stopTime="0.00" timeLoss="46.25" rerouteNo="0" devices="tripinfo_1413 emissions_1413 ssm_1413 fcd_1413" vType="DEFAULT_VEHTYPE" speedFactor="0.89" vaporized="">
        <emissions CO_abs="1859.20" CO2_abs="251123.05" HC_abs="12.48" PMx_abs="20.76" NOx_abs="92.74" fuel_abs="81410.57" electricity_abs="0.00"/>
    </tripinfo>
    <tripinfo id="1443" depart="52.00" departLane="50211834#0_1" departPos="5.10" departSpeed="26.36" departDelay="0.67" arrival="133.00" arrivalLane="10873193#2_0" arrivalPos="224.37" arrivalSpeed="20.77" duration="81.00" routeLength="825.23" waitingTime="23.00" waitingCount="1" stopTime="0.00" timeLoss="42.53" rerouteNo="0" devices="tripinfo_1443 emissions_1443 ssm_1443 fcd_1443" vType="DEFAULT_VEHTYPE" speedFactor="0.95" vaporized="">
        <emissions CO_abs="2080.97" CO2_abs="251971.16" HC_abs="13.92" PMx_abs="19.92" NOx_abs="93.43" fuel_abs="81685.29" electricity_abs="0.00"/>
    </tripinfo>
    <tripinfo id="1427" depart="60.00" departLane="50211834#0_2" departPos="5.10" departSpeed="32.55" departDelay="0.15" arrival="134.00" arrivalLane="10873193#2_0" arrivalPos="224.37" arrivalSpeed="23.53" duration="74.00" routeLength="822.42" waitingTime="16.00" waitingCount="1" stopTime="0.00" timeLoss="43.87" rerouteNo="0" devices="tripinfo_1427 emissions_1427 ssm_1427 fcd_1427" vType="DEFAULT_VEHTYPE" speedFactor="1.17" vaporized="">
        <emissions CO_abs="2593.07" CO2_abs="269451.50" HC_abs="17.33" PMx_abs="20.47" NOx_abs="101.89" fuel_abs="87351.84" electricity_abs="0.00"/>
    </tripinfo>
    <tripinfo id="1868" depart="66.00" departLane="50211834#0_1" departPos="5.10" departSpeed="28.33" departDelay="0.77" arrival="135.00" arrivalLane="10873191#5_1" arrivalPos="21.02" arrivalSpeed="16.27" duration="69.00" routeLength="643.12" waitingTime="19.00" waitingCount="2" stopTime="0.00" timeLoss="44.11" rerouteNo="0" devices="tripinfo_1868 emissions_1868 ssm_1868 fcd_1868" vType="DEFAULT_VEHTYPE" speedFactor="1.02" vaporized="">
        <emissions CO_abs="1910.86" CO2_abs="236310.66" HC_abs="12.73" PMx_abs="15.69" NOx_abs="86.12" fuel_abs="76608.28" electricity_abs="0.00"/>
    </tripinfo>
    <tripinfo id="1734" depart="11.00" departLane="50211834#0_0" departPos="5.10" departSpeed="28.07" departDelay="0.84" arrival="136.00" arrivalLane="10873191#5_2" arrivalPos="21.02" arrivalSpeed="13.90" duration="125.00" routeLength="643.12" waitingTime="76.00" waitingCount="2" stopTime="0.00" timeLoss="100.10" rerouteNo="0" devices="tripinfo_1734 emissions_1734 ssm_1734 fcd_1734" vType="DEFAULT_VEHTYPE" speedFactor="1.01" vaporized="">
        <emissions CO_abs="1889.64" CO2_abs="314275.35" HC_abs="12.62" PMx_abs="15.52" NOx_abs="117.51" fuel_abs="101884.11" electricity_abs="0.00"/>
    </tripinfo>
    <tripinfo id="1826" depart="71.00" departLane="50211834#0_0" departPos="5.10" departSpeed="32.77" departDelay="0.31" arrival="137.00" arrivalLane="10873191#5_3" arrivalPos="21.02" arrivalSpeed="14.21" duration="66.00" routeLength="640.31" waitingTime="10.00" waitingCount="2" stopTime="0.00" timeLoss="44.92" rerouteNo="0" devices="tripinfo_1826 emissions_1826 ssm_1826 fcd_1826" vType="DEFAULT_VEHTYPE" speedFactor="1.18" vaporized="">
        <emissions CO_abs="1926.75" CO2_abs="241869.76" HC_abs="12.85" PMx_abs="15.70" NOx_abs="85.47" fuel_abs="78410.32" electricity_abs="0.00"/>
    </tripinfo>
    <tripinfo id="1772" depart="26.00" departLane="50211834#0_2" departPos="5.10" departSpeed="25.75" departDelay="0.14" arrival="138.00" arrivalLane="10873191#5_1" arrivalPos="21.02" arrivalSpeed="16.90" duration="112.00" routeLength="643.12" waitingTime="61.00" waitingCount="2" stopTime="0.00" timeLoss="84.89" rerouteNo="0" devices="tripinfo_1772 emissions_1772 ssm_1772 fcd_1772" vType="DEFAULT_VEHTYPE" speedFactor="0.93" vaporized="">
        <emissions CO_abs="1886.45" CO2_abs="308075.18" HC_abs="12.60" PMx_abs="17.26" NOx_abs="113.17" fuel_abs="99873.88" electricity_abs="0.00"/>
    </tripinfo>
    <tripinfo id="1869" depart="57.00" departLane="50211834#0_0" departPos="5.10" departSpeed="32.07" departDelay="0.73" arrival="138.00" arrivalLane="10873191#5_3" arrivalPos="21.02" arrivalSpeed="14.63" duration="81.00" routeLength="640.31" waitingTime="23.00" waitingCount="2" stopTime="0.00" timeLoss="59.37" rerouteNo="0" devices="tripinfo_1869 emissions_1869 ssm_1869 fcd_1869" vType="DEFAULT_VEHTYPE" speedFactor="1.15" vaporized="">
        <emissions CO_abs="1581.02" CO2_abs="238891.22" HC_abs="10.55" PMx_abs="13.75" NOx_abs="83.67" fuel_abs="77444.86" electricity_abs="0.00"/>
    </tripinfo>
    <tripinfo id="1749" depart="35.00" departLane="50211834#0_0" departPos="5.10" departSpeed="26.01" departDelay="0.00" arrival="139.00" arrivalLane="10873191#5_2" arrivalPos="21.02" arrivalSpeed="14.75" duration="104.00" routeLength="643.12" waitingTime="54.00" waitingCount="2" stopTime="0.00" timeLoss="77.24" rerouteNo="0" devices="tripinfo_1749 emissions_1749 ssm_1749 fcd_1749" vType="DEFAULT_VEHTYPE" speedFactor="0.94" vaporized="">
        <emissions CO_abs="1617.92" CO2_abs="266778.06" HC_abs="10.82" PMx_abs="15.53" NOx_abs="98.81" fuel_abs="86486.01" electricity_abs="0.00"/>
    </tripinfo>
    <tripinfo id="1554" depart="67.00" departLane="50211834#0_2" departPos="5.10" departSpeed="27.04" departDelay="0.27" arrival="140.00" arrivalLane="10873193#2_0" arrivalPos="224.37" arrivalSpeed="21.38" duration="73.00" routeLength="825.23" waitingTime="13.00" waitingCount="2" stopTime="0.00" timeLoss="35.76" rerouteNo="0" devices="tripinfo_1554 emissions_1554 ssm_1554 fcd_1554" vType="DEFAULT_VEHTYPE" speedFactor="0.97" vaporized="">
        <emissions CO_abs="2016.51" CO2_abs="237777.43" HC_abs="13.51" PMx_abs="20.60" NOx_abs="87.48" fuel_abs="77083.89" electricity_abs="0.00"/>
    </tripinfo>
    <tripinfo id="1674" depart="54.00" departLane="50211834#0_2" departPos="5.10" departSpeed="31.44" departDelay="0.06" arrival="141.00" arrivalLane="10873193#2_0" arrivalPos="224.37" arrivalSpeed="23.29" duration="87.00" routeLength="825.23" waitingTime="32.00" waitingCount="2" stopTime="0.00" timeLoss="55.83" rerouteNo="0" devices="tripinfo_1674 emissions_1674 ssm_1674 fcd_1674" vType="DEFAULT_VEHTYPE" speedFactor="1.13" vaporized="">
        <emissions CO_abs="2550.57" CO2_abs="282222.05" HC_abs="16.98" PMx_abs="18.40" NOx_abs="107.30" fuel_abs="91491.97" electricity_abs="0.00"/>
    </tripinfo>
    <tripinfo id="1757" depart="106.00" departLane="50211834#0_2" departPos="5.10" departSpeed="30.44" departDelay="0.76" arrival="141.00" arrivalLane="10873191#5_2" arrivalPos="21.02" arrivalSpeed="18.02" duration="35.00" routeLength="643.12" waitingTime="0.00" waitingCount="0" stopTime="0.00" timeLoss="11.77" rerouteNo="0" devices="tripinfo_1757 emissions_1757 ssm_1757 fcd_1757" vType="DEFAULT_VEHTYPE" speedFactor="1.10" vaporized="">
        <emissions CO_abs="1802.58" CO2_abs="145505.91" HC_abs="12.04" PMx_abs="13.76" NOx_abs="56.73" fuel_abs="47170.59" electricity_abs="0.00"/>
    </tripinfo>
    <tripinfo id="1630" depart="104.00" departLane="50211834#0_1" departPos="5.10" departSpeed="32.47" departDelay="0.17" arrival="144.00" arrivalLane="10873193#2_0" arrivalPos="224.37" arrivalSpeed="24.78" duration="40.00" routeLength="825.23" waitingTime="0.00" waitingCount="0" stopTime="0.00" timeLoss="9.21" rerouteNo="0" devices="tripinfo_1630 emissions_1630 ssm_1630 fcd_1630" vType="DEFAULT_VEHTYPE" speedFactor="1.17" vaporized="">
        <emissions CO_abs="2720.69" CO2_abs="206914.47" HC_abs="18.33" PMx_abs="23.46" NOx_abs="81.44" fuel_abs="67078.35" electricity_abs="0.00"/>
    </tripinfo>
    <tripinfo id="826" depart="89.00" departLane="29181613#1_0" departPos="5.10" departSpeed="28.83" departDelay="0.12" arrival="150.00" arrivalLane="305873958#3-AddedOnRampEdge_0" arrivalPos="99.87" arrivalSpeed="22.79" duration="61.00" routeLength="477.81" waitingTime="33.00" waitingCount="1" stopTime="0.00" timeLoss="41.02" rerouteNo="0" devices="tripinfo_826 emissions_826 ssm_826 fcd_826" vType="DEFAULT_VEHTYPE" speedFactor="1.04" vaporized="">
        <emissions CO_abs="1481.10" CO2_abs="180283.00" HC_abs="9.94" PMx_abs="13.03" NOx_abs="69.31" fuel_abs="58445.36" electricity_abs="0.00"/>
    </tripinfo>
    <tripinfo id="1048" depart="60.00" departLane="690516091#0_0" departPos="5.10" departSpeed="27.92" departDelay="0.93" arrival="152.00" arrivalLane="10873191#5_2" arrivalPos="21.02" arrivalSpeed="27.79" duration="92.00" routeLength="714.43" waitingTime="50.00" waitingCount="1" stopTime="0.00" timeLoss="65.19" rerouteNo="0" devices="tripinfo_1048 emissions_1048 ssm_1048 fcd_1048" vType="DEFAULT_VEHTYPE" speedFactor="1.01" vaporized="">
        <emissions CO_abs="2929.21" CO2_abs="296608.33" HC_abs="19.60" PMx_abs="20.64" NOx_abs="118.18" fuel_abs="96156.04" electricity_abs="0.00"/>
    </tripinfo>
    <tripinfo id="1692" depart="102.00" departLane="50211834#0_0" departPos="5.10" departSpeed="23.75" departDelay="0.13" arrival="152.00" arrivalLane="10873193#2_0" arrivalPos="224.37" arrivalSpeed="17.86" duration="50.00" routeLength="822.42" waitingTime="0.00" waitingCount="0" stopTime="0.00" timeLoss="8.48" rerouteNo="0" devices="tripinfo_1692 emissions_1692 ssm_1692 fcd_1692" vType="DEFAULT_VEHTYPE" speedFactor="0.85" vaporized="">
        <emissions CO_abs="1901.85" CO2_abs="182005.92" HC_abs="12.71" PMx_abs="19.16" NOx_abs="68.41" fuel_abs="59003.50" electricity_abs="0.00"/>
    </tripinfo>
    <tripinfo id="5" depart="56.00" departLane="28718647#1_0" departPos="5.10" departSpeed="26.19" departDelay="0.35" arrival="153.00" arrivalLane="10873191#5_2" arrivalPos="21.02" arrivalSpeed="27.67" duration="97.00" routeLength="817.38" waitingTime="43.00" waitingCount="2" stopTime="0.00" timeLoss="66.06" rerouteNo="0" devices="tripinfo_5 emissions_5 ssm_5 fcd_5" vType="DEFAULT_VEHTYPE" speedFactor="1.18" vaporized="">
        <emissions CO_abs="2860.48" CO2_abs="318674.30" HC_abs="19.16" PMx_abs="24.01" NOx_abs="122.57" fuel_abs="103309.43" electricity_abs="0.00"/>
    </tripinfo>
    <tripinfo id="1141" depart="24.00" departLane="690516091#0_0" departPos="5.10" departSpeed="31.19" departDelay="0.11" arrival="156.00" arrivalLane="10873191#5_2" arrivalPos="21.02" arrivalSpeed="26.35" duration="132.00" routeLength="714.43" waitingTime="81.00" waitingCount="2" stopTime="0.00" timeLoss="108.34" rerouteNo="0" devices="tripinfo_1141 emissions_1141 ssm_1141 fcd_1141" vType="DEFAULT_VEHTYPE" speedFactor="1.12" vaporized="">
        <emissions CO_abs="2592.54" CO2_abs="359915.01" HC_abs="17.38" PMx_abs="19.86" NOx_abs="137.50" fuel_abs="116679.44" electricity_abs="0.00"/>
    </tripinfo>
    <tripinfo id="692" depart="109.00" departLane="29181613#1_2" departPos="5.10" departSpeed="20.29" departDelay="0.75" arrival="159.00" arrivalLane="305873958#3-AddedOnRampEdge_0" arrivalPos="99.87" arrivalSpeed="19.24" duration="50.00" routeLength="477.81" waitingTime="14.00" waitingCount="1" stopTime="0.00" timeLoss="26.77" rerouteNo="0" devices="tripinfo_692 emissions_692 ssm_692 fcd_692" vType="DEFAULT_VEHTYPE" speedFactor="0.90" vaporized="">
        <emissions CO_abs="1609.09" CO2_abs="169799.17" HC_abs="10.72" PMx_abs="12.69" NOx_abs="64.18" fuel_abs="55046.20" electricity_abs="0.00"/>
    </tripinfo>
    <tripinfo id="870" depart="109.00" departLane="29181613#1_3" departPos="5.10" departSpeed="19.59" departDelay="0.14" arrival="160.00" arrivalLane="305873958#3-AddedOnRampEdge_0" arrivalPos="99.87" arrivalSpeed="21.57" duration="51.00" routeLength="477.81" waitingTime="13.00" waitingCount="1" stopTime="0.00" timeLoss="31.03" rerouteNo="0" devices="tripinfo_870 emissions_870 ssm_870 fcd_870" vType="DEFAULT_VEHTYPE" speedFactor="1.02" vaporized="">
        <emissions CO_abs="1579.56" CO2_abs="171463.19" HC_abs="10.50" PMx_abs="12.42" NOx_abs="64.72" fuel_abs="55585.68" electricity_abs="0.00"/>
    </tripinfo>
    <tripinfo id="957" depart="121.00" departLane="690516091#0_0" departPos="5.10" departSpeed="27.42" departDelay="0.65" arrival="160.00" arrivalLane="10873191#5_2" arrivalPos="21.02" arrivalSpeed="26.54" duration="39.00" routeLength="714.43" waitingTime="0.00" waitingCount="0" stopTime="0.00" timeLoss="11.49" rerouteNo="0" devices="tripinfo_957 emissions_957 ssm_957 fcd_957" vType="DEFAULT_VEHTYPE" speedFactor="0.99" vaporized="">
        <emissions CO_abs="2548.92" CO2_abs="200055.04" HC_abs="17.09" PMx_abs="20.72" NOx_abs="78.53" fuel_abs="64854.50" electricity_abs="0.00"/>
    </tripinfo>
    <tripinfo id="881" depart="111.00" departLane="29181613#1_3" departPos="5.10" departSpeed="19.89" departDelay="0.91" arrival="161.00" arrivalLane="192591565#2_0" arrivalPos="258.68" arrivalSpeed="26.02" duration="50.00" routeLength="523.09" waitingTime="12.00" waitingCount="1" stopTime="0.00" timeLoss="28.60" rerouteNo="0" devices="tripinfo_881 emissions_881 ssm_881 fcd_881" vType="DEFAULT_VEHTYPE" speedFactor="0.97" vaporized="">
        <emissions CO_abs="2316.58" CO2_abs="207604.65" HC_abs="15.47" PMx_abs="16.97" NOx_abs="81.03" fuel_abs="67302.01" electricity_abs="0.00"/>
    </tripinfo>
    <tripinfo id="1151" depart="64.00" departLane="690516091#0_0" departPos="5.10" departSpeed="27.64" departDelay="0.82" arrival="162.00" arrivalLane="10873191#5_2" arrivalPos="21.02" arrivalSpeed="26.34" duration="98.00" routeLength="714.43" waitingTime="46.00" waitingCount="2" stopTime="0.00" timeLoss="71.25" rerouteNo="0" devices="tripinfo_1151 emissions_1151 ssm_1151 fcd_1151" vType="DEFAULT_VEHTYPE" speedFactor="0.99" vaporized="">
        <emissions CO_abs="2333.44" CO2_abs="284966.39" HC_abs="15.66" PMx_abs="19.51" NOx_abs="108.43" fuel_abs="92382.00" electricity_abs="0.00"/>
    </tripinfo>
    <tripinfo id="1348" depart="17.00" departLane="690516091#0_0" departPos="5.10" departSpeed="23.09" departDelay="0.92" arrival="164.00" arrivalLane="192591565#2_0" arrivalPos="258.68" arrivalSpeed="22.25" duration="147.00" routeLength="903.69" waitingTime="86.00" waitingCount="2" stopTime="0.00" timeLoss="105.79" rerouteNo="0" devices="tripinfo_1348 emissions_1348 ssm_1348 fcd_1348" vType="DEFAULT_VEHTYPE" speedFactor="0.83" vaporized="">
        <emissions CO_abs="2370.05" CO2_abs="376825.12" HC_abs="15.88" PMx_abs="24.09" NOx_abs="142.38" fuel_abs="122162.06" electricity_abs="0.00"/>
    </tripinfo>
    <tripinfo id="941" depart="128.00" departLane="690516091#0_0" departPos="5.10" departSpeed="24.51" departDelay="0.72" arrival="165.00" arrivalLane="10873191#5_2" arrivalPos="21.02" arrivalSpeed="24.09" duration="37.00" routeLength="714.43" waitingTime="0.00" waitingCount="0" stopTime="0.00" timeLoss="5.62" rerouteNo="0" devices="tripinfo_941 emissions_941 ssm_941 fcd_941" vType="DEFAULT_VEHTYPE" speedFactor="0.88" vaporized="">
        <emissions CO_abs="2154.67" CO2_abs="166208.77" HC_abs="14.43" PMx_abs="18.30" NOx_abs="66.11" fuel_abs="53882.13" electricity_abs="0.00"/>
    </tripinfo>